LAMMPS DATA FILE

32768 atoms

2 atom types

-0.678875 86.21712500000001 xlo xhi
-0.678875 86.21712500000001 ylo yhi
-0.678875 86.21712500000001 zlo zhi

Masses

1 28.0855
2 28.0855

Atoms

1 1 0.0 0.0 0.0
2 1 0.0 2.7155 2.7155
3 1 2.7155 0.0 2.7155
4 1 2.7155 2.7155 0.0
5 2 1.35775 1.35775 1.35775
6 2 1.35775 4.07325 4.07325
7 2 4.07325 1.35775 4.07325
8 2 4.07325 4.07325 1.35775
9 1 5.431 0.0 0.0
10 1 5.431 2.7155 2.7155
11 1 8.1465 0.0 2.7155
12 1 8.1465 2.7155 0.0
13 2 6.78875 1.35775 1.35775
14 2 6.78875 4.07325 4.07325
15 2 9.50425 1.35775 4.07325
16 2 9.50425 4.07325 1.35775
17 1 10.862 0.0 0.0
18 1 10.862 2.7155 2.7155
19 1 13.5775 0.0 2.7155
20 1 13.5775 2.7155 0.0
21 2 12.21975 1.35775 1.35775
22 2 12.21975 4.07325 4.07325
23 2 14.93525 1.35775 4.07325
24 2 14.93525 4.07325 1.35775
25 1 16.293 0.0 0.0
26 1 16.293 2.7155 2.7155
27 1 19.0085 0.0 2.7155
28 1 19.0085 2.7155 0.0
29 2 17.65075 1.35775 1.35775
30 2 17.65075 4.07325 4.07325
31 2 20.36625 1.35775 4.07325
32 2 20.36625 4.07325 1.35775
33 1 21.724 0.0 0.0
34 1 21.724 2.7155 2.7155
35 1 24.4395 0.0 2.7155
36 1 24.4395 2.7155 0.0
37 2 23.08175 1.35775 1.35775
38 2 23.08175 4.07325 4.07325
39 2 25.797250000000002 1.35775 4.07325
40 2 25.797250000000002 4.07325 1.35775
41 1 27.155 0.0 0.0
42 1 27.155 2.7155 2.7155
43 1 29.8705 0.0 2.7155
44 1 29.8705 2.7155 0.0
45 2 28.51275 1.35775 1.35775
46 2 28.51275 4.07325 4.07325
47 2 31.22825 1.35775 4.07325
48 2 31.22825 4.07325 1.35775
49 1 32.586 0.0 0.0
50 1 32.586 2.7155 2.7155
51 1 35.3015 0.0 2.7155
52 1 35.3015 2.7155 0.0
53 2 33.94375 1.35775 1.35775
54 2 33.94375 4.07325 4.07325
55 2 36.65925 1.35775 4.07325
56 2 36.65925 4.07325 1.35775
57 1 38.017 0.0 0.0
58 1 38.017 2.7155 2.7155
59 1 40.7325 0.0 2.7155
60 1 40.7325 2.7155 0.0
61 2 39.37475 1.35775 1.35775
62 2 39.37475 4.07325 4.07325
63 2 42.09025 1.35775 4.07325
64 2 42.09025 4.07325 1.35775
65 1 43.448 0.0 0.0
66 1 43.448 2.7155 2.7155
67 1 46.1635 0.0 2.7155
68 1 46.1635 2.7155 0.0
69 2 44.80575 1.35775 1.35775
70 2 44.80575 4.07325 4.07325
71 2 47.52125 1.35775 4.07325
72 2 47.52125 4.07325 1.35775
73 1 48.879 0.0 0.0
74 1 48.879 2.7155 2.7155
75 1 51.594500000000004 0.0 2.7155
76 1 51.594500000000004 2.7155 0.0
77 2 50.23675 1.35775 1.35775
78 2 50.23675 4.07325 4.07325
79 2 52.95225 1.35775 4.07325
80 2 52.95225 4.07325 1.35775
81 1 54.31 0.0 0.0
82 1 54.31 2.7155 2.7155
83 1 57.0255 0.0 2.7155
84 1 57.0255 2.7155 0.0
85 2 55.66775 1.35775 1.35775
86 2 55.66775 4.07325 4.07325
87 2 58.383250000000004 1.35775 4.07325
88 2 58.383250000000004 4.07325 1.35775
89 1 59.741 0.0 0.0
90 1 59.741 2.7155 2.7155
91 1 62.4565 0.0 2.7155
92 1 62.4565 2.7155 0.0
93 2 61.09875 1.35775 1.35775
94 2 61.09875 4.07325 4.07325
95 2 63.81425 1.35775 4.07325
96 2 63.81425 4.07325 1.35775
97 1 65.172 0.0 0.0
98 1 65.172 2.7155 2.7155
99 1 67.8875 0.0 2.7155
100 1 67.8875 2.7155 0.0
101 2 66.52975 1.35775 1.35775
102 2 66.52975 4.07325 4.07325
103 2 69.24525 1.35775 4.07325
104 2 69.24525 4.07325 1.35775
105 1 70.603 0.0 0.0
106 1 70.603 2.7155 2.7155
107 1 73.3185 0.0 2.7155
108 1 73.3185 2.7155 0.0
109 2 71.96075 1.35775 1.35775
110 2 71.96075 4.07325 4.07325
111 2 74.67625 1.35775 4.07325
112 2 74.67625 4.07325 1.35775
113 1 76.034 0.0 0.0
114 1 76.034 2.7155 2.7155
115 1 78.7495 0.0 2.7155
116 1 78.7495 2.7155 0.0
117 2 77.39175 1.35775 1.35775
118 2 77.39175 4.07325 4.07325
119 2 80.10725000000001 1.35775 4.07325
120 2 80.10725000000001 4.07325 1.35775
121 1 81.465 0.0 0.0
122 1 81.465 2.7155 2.7155
123 1 84.1805 0.0 2.7155
124 1 84.1805 2.7155 0.0
125 2 82.82275 1.35775 1.35775
126 2 82.82275 4.07325 4.07325
127 2 85.53825 1.35775 4.07325
128 2 85.53825 4.07325 1.35775
129 1 0.0 5.431 0.0
130 1 0.0 8.1465 2.7155
131 1 2.7155 5.431 2.7155
132 1 2.7155 8.1465 0.0
133 2 1.35775 6.78875 1.35775
134 2 1.35775 9.50425 4.07325
135 2 4.07325 6.78875 4.07325
136 2 4.07325 9.50425 1.35775
137 1 5.431 5.431 0.0
138 1 5.431 8.1465 2.7155
139 1 8.1465 5.431 2.7155
140 1 8.1465 8.1465 0.0
141 2 6.78875 6.78875 1.35775
142 2 6.78875 9.50425 4.07325
143 2 9.50425 6.78875 4.07325
144 2 9.50425 9.50425 1.35775
145 1 10.862 5.431 0.0
146 1 10.862 8.1465 2.7155
147 1 13.5775 5.431 2.7155
148 1 13.5775 8.1465 0.0
149 2 12.21975 6.78875 1.35775
150 2 12.21975 9.50425 4.07325
151 2 14.93525 6.78875 4.07325
152 2 14.93525 9.50425 1.35775
153 1 16.293 5.431 0.0
154 1 16.293 8.1465 2.7155
155 1 19.0085 5.431 2.7155
156 1 19.0085 8.1465 0.0
157 2 17.65075 6.78875 1.35775
158 2 17.65075 9.50425 4.07325
159 2 20.36625 6.78875 4.07325
160 2 20.36625 9.50425 1.35775
161 1 21.724 5.431 0.0
162 1 21.724 8.1465 2.7155
163 1 24.4395 5.431 2.7155
164 1 24.4395 8.1465 0.0
165 2 23.08175 6.78875 1.35775
166 2 23.08175 9.50425 4.07325
167 2 25.797250000000002 6.78875 4.07325
168 2 25.797250000000002 9.50425 1.35775
169 1 27.155 5.431 0.0
170 1 27.155 8.1465 2.7155
171 1 29.8705 5.431 2.7155
172 1 29.8705 8.1465 0.0
173 2 28.51275 6.78875 1.35775
174 2 28.51275 9.50425 4.07325
175 2 31.22825 6.78875 4.07325
176 2 31.22825 9.50425 1.35775
177 1 32.586 5.431 0.0
178 1 32.586 8.1465 2.7155
179 1 35.3015 5.431 2.7155
180 1 35.3015 8.1465 0.0
181 2 33.94375 6.78875 1.35775
182 2 33.94375 9.50425 4.07325
183 2 36.65925 6.78875 4.07325
184 2 36.65925 9.50425 1.35775
185 1 38.017 5.431 0.0
186 1 38.017 8.1465 2.7155
187 1 40.7325 5.431 2.7155
188 1 40.7325 8.1465 0.0
189 2 39.37475 6.78875 1.35775
190 2 39.37475 9.50425 4.07325
191 2 42.09025 6.78875 4.07325
192 2 42.09025 9.50425 1.35775
193 1 43.448 5.431 0.0
194 1 43.448 8.1465 2.7155
195 1 46.1635 5.431 2.7155
196 1 46.1635 8.1465 0.0
197 2 44.80575 6.78875 1.35775
198 2 44.80575 9.50425 4.07325
199 2 47.52125 6.78875 4.07325
200 2 47.52125 9.50425 1.35775
201 1 48.879 5.431 0.0
202 1 48.879 8.1465 2.7155
203 1 51.594500000000004 5.431 2.7155
204 1 51.594500000000004 8.1465 0.0
205 2 50.23675 6.78875 1.35775
206 2 50.23675 9.50425 4.07325
207 2 52.95225 6.78875 4.07325
208 2 52.95225 9.50425 1.35775
209 1 54.31 5.431 0.0
210 1 54.31 8.1465 2.7155
211 1 57.0255 5.431 2.7155
212 1 57.0255 8.1465 0.0
213 2 55.66775 6.78875 1.35775
214 2 55.66775 9.50425 4.07325
215 2 58.383250000000004 6.78875 4.07325
216 2 58.383250000000004 9.50425 1.35775
217 1 59.741 5.431 0.0
218 1 59.741 8.1465 2.7155
219 1 62.4565 5.431 2.7155
220 1 62.4565 8.1465 0.0
221 2 61.09875 6.78875 1.35775
222 2 61.09875 9.50425 4.07325
223 2 63.81425 6.78875 4.07325
224 2 63.81425 9.50425 1.35775
225 1 65.172 5.431 0.0
226 1 65.172 8.1465 2.7155
227 1 67.8875 5.431 2.7155
228 1 67.8875 8.1465 0.0
229 2 66.52975 6.78875 1.35775
230 2 66.52975 9.50425 4.07325
231 2 69.24525 6.78875 4.07325
232 2 69.24525 9.50425 1.35775
233 1 70.603 5.431 0.0
234 1 70.603 8.1465 2.7155
235 1 73.3185 5.431 2.7155
236 1 73.3185 8.1465 0.0
237 2 71.96075 6.78875 1.35775
238 2 71.96075 9.50425 4.07325
239 2 74.67625 6.78875 4.07325
240 2 74.67625 9.50425 1.35775
241 1 76.034 5.431 0.0
242 1 76.034 8.1465 2.7155
243 1 78.7495 5.431 2.7155
244 1 78.7495 8.1465 0.0
245 2 77.39175 6.78875 1.35775
246 2 77.39175 9.50425 4.07325
247 2 80.10725000000001 6.78875 4.07325
248 2 80.10725000000001 9.50425 1.35775
249 1 81.465 5.431 0.0
250 1 81.465 8.1465 2.7155
251 1 84.1805 5.431 2.7155
252 1 84.1805 8.1465 0.0
253 2 82.82275 6.78875 1.35775
254 2 82.82275 9.50425 4.07325
255 2 85.53825 6.78875 4.07325
256 2 85.53825 9.50425 1.35775
257 1 0.0 10.862 0.0
258 1 0.0 13.5775 2.7155
259 1 2.7155 10.862 2.7155
260 1 2.7155 13.5775 0.0
261 2 1.35775 12.21975 1.35775
262 2 1.35775 14.93525 4.07325
263 2 4.07325 12.21975 4.07325
264 2 4.07325 14.93525 1.35775
265 1 5.431 10.862 0.0
266 1 5.431 13.5775 2.7155
267 1 8.1465 10.862 2.7155
268 1 8.1465 13.5775 0.0
269 2 6.78875 12.21975 1.35775
270 2 6.78875 14.93525 4.07325
271 2 9.50425 12.21975 4.07325
272 2 9.50425 14.93525 1.35775
273 1 10.862 10.862 0.0
274 1 10.862 13.5775 2.7155
275 1 13.5775 10.862 2.7155
276 1 13.5775 13.5775 0.0
277 2 12.21975 12.21975 1.35775
278 2 12.21975 14.93525 4.07325
279 2 14.93525 12.21975 4.07325
280 2 14.93525 14.93525 1.35775
281 1 16.293 10.862 0.0
282 1 16.293 13.5775 2.7155
283 1 19.0085 10.862 2.7155
284 1 19.0085 13.5775 0.0
285 2 17.65075 12.21975 1.35775
286 2 17.65075 14.93525 4.07325
287 2 20.36625 12.21975 4.07325
288 2 20.36625 14.93525 1.35775
289 1 21.724 10.862 0.0
290 1 21.724 13.5775 2.7155
291 1 24.4395 10.862 2.7155
292 1 24.4395 13.5775 0.0
293 2 23.08175 12.21975 1.35775
294 2 23.08175 14.93525 4.07325
295 2 25.797250000000002 12.21975 4.07325
296 2 25.797250000000002 14.93525 1.35775
297 1 27.155 10.862 0.0
298 1 27.155 13.5775 2.7155
299 1 29.8705 10.862 2.7155
300 1 29.8705 13.5775 0.0
301 2 28.51275 12.21975 1.35775
302 2 28.51275 14.93525 4.07325
303 2 31.22825 12.21975 4.07325
304 2 31.22825 14.93525 1.35775
305 1 32.586 10.862 0.0
306 1 32.586 13.5775 2.7155
307 1 35.3015 10.862 2.7155
308 1 35.3015 13.5775 0.0
309 2 33.94375 12.21975 1.35775
310 2 33.94375 14.93525 4.07325
311 2 36.65925 12.21975 4.07325
312 2 36.65925 14.93525 1.35775
313 1 38.017 10.862 0.0
314 1 38.017 13.5775 2.7155
315 1 40.7325 10.862 2.7155
316 1 40.7325 13.5775 0.0
317 2 39.37475 12.21975 1.35775
318 2 39.37475 14.93525 4.07325
319 2 42.09025 12.21975 4.07325
320 2 42.09025 14.93525 1.35775
321 1 43.448 10.862 0.0
322 1 43.448 13.5775 2.7155
323 1 46.1635 10.862 2.7155
324 1 46.1635 13.5775 0.0
325 2 44.80575 12.21975 1.35775
326 2 44.80575 14.93525 4.07325
327 2 47.52125 12.21975 4.07325
328 2 47.52125 14.93525 1.35775
329 1 48.879 10.862 0.0
330 1 48.879 13.5775 2.7155
331 1 51.594500000000004 10.862 2.7155
332 1 51.594500000000004 13.5775 0.0
333 2 50.23675 12.21975 1.35775
334 2 50.23675 14.93525 4.07325
335 2 52.95225 12.21975 4.07325
336 2 52.95225 14.93525 1.35775
337 1 54.31 10.862 0.0
338 1 54.31 13.5775 2.7155
339 1 57.0255 10.862 2.7155
340 1 57.0255 13.5775 0.0
341 2 55.66775 12.21975 1.35775
342 2 55.66775 14.93525 4.07325
343 2 58.383250000000004 12.21975 4.07325
344 2 58.383250000000004 14.93525 1.35775
345 1 59.741 10.862 0.0
346 1 59.741 13.5775 2.7155
347 1 62.4565 10.862 2.7155
348 1 62.4565 13.5775 0.0
349 2 61.09875 12.21975 1.35775
350 2 61.09875 14.93525 4.07325
351 2 63.81425 12.21975 4.07325
352 2 63.81425 14.93525 1.35775
353 1 65.172 10.862 0.0
354 1 65.172 13.5775 2.7155
355 1 67.8875 10.862 2.7155
356 1 67.8875 13.5775 0.0
357 2 66.52975 12.21975 1.35775
358 2 66.52975 14.93525 4.07325
359 2 69.24525 12.21975 4.07325
360 2 69.24525 14.93525 1.35775
361 1 70.603 10.862 0.0
362 1 70.603 13.5775 2.7155
363 1 73.3185 10.862 2.7155
364 1 73.3185 13.5775 0.0
365 2 71.96075 12.21975 1.35775
366 2 71.96075 14.93525 4.07325
367 2 74.67625 12.21975 4.07325
368 2 74.67625 14.93525 1.35775
369 1 76.034 10.862 0.0
370 1 76.034 13.5775 2.7155
371 1 78.7495 10.862 2.7155
372 1 78.7495 13.5775 0.0
373 2 77.39175 12.21975 1.35775
374 2 77.39175 14.93525 4.07325
375 2 80.10725000000001 12.21975 4.07325
376 2 80.10725000000001 14.93525 1.35775
377 1 81.465 10.862 0.0
378 1 81.465 13.5775 2.7155
379 1 84.1805 10.862 2.7155
380 1 84.1805 13.5775 0.0
381 2 82.82275 12.21975 1.35775
382 2 82.82275 14.93525 4.07325
383 2 85.53825 12.21975 4.07325
384 2 85.53825 14.93525 1.35775
385 1 0.0 16.293 0.0
386 1 0.0 19.0085 2.7155
387 1 2.7155 16.293 2.7155
388 1 2.7155 19.0085 0.0
389 2 1.35775 17.65075 1.35775
390 2 1.35775 20.36625 4.07325
391 2 4.07325 17.65075 4.07325
392 2 4.07325 20.36625 1.35775
393 1 5.431 16.293 0.0
394 1 5.431 19.0085 2.7155
395 1 8.1465 16.293 2.7155
396 1 8.1465 19.0085 0.0
397 2 6.78875 17.65075 1.35775
398 2 6.78875 20.36625 4.07325
399 2 9.50425 17.65075 4.07325
400 2 9.50425 20.36625 1.35775
401 1 10.862 16.293 0.0
402 1 10.862 19.0085 2.7155
403 1 13.5775 16.293 2.7155
404 1 13.5775 19.0085 0.0
405 2 12.21975 17.65075 1.35775
406 2 12.21975 20.36625 4.07325
407 2 14.93525 17.65075 4.07325
408 2 14.93525 20.36625 1.35775
409 1 16.293 16.293 0.0
410 1 16.293 19.0085 2.7155
411 1 19.0085 16.293 2.7155
412 1 19.0085 19.0085 0.0
413 2 17.65075 17.65075 1.35775
414 2 17.65075 20.36625 4.07325
415 2 20.36625 17.65075 4.07325
416 2 20.36625 20.36625 1.35775
417 1 21.724 16.293 0.0
418 1 21.724 19.0085 2.7155
419 1 24.4395 16.293 2.7155
420 1 24.4395 19.0085 0.0
421 2 23.08175 17.65075 1.35775
422 2 23.08175 20.36625 4.07325
423 2 25.797250000000002 17.65075 4.07325
424 2 25.797250000000002 20.36625 1.35775
425 1 27.155 16.293 0.0
426 1 27.155 19.0085 2.7155
427 1 29.8705 16.293 2.7155
428 1 29.8705 19.0085 0.0
429 2 28.51275 17.65075 1.35775
430 2 28.51275 20.36625 4.07325
431 2 31.22825 17.65075 4.07325
432 2 31.22825 20.36625 1.35775
433 1 32.586 16.293 0.0
434 1 32.586 19.0085 2.7155
435 1 35.3015 16.293 2.7155
436 1 35.3015 19.0085 0.0
437 2 33.94375 17.65075 1.35775
438 2 33.94375 20.36625 4.07325
439 2 36.65925 17.65075 4.07325
440 2 36.65925 20.36625 1.35775
441 1 38.017 16.293 0.0
442 1 38.017 19.0085 2.7155
443 1 40.7325 16.293 2.7155
444 1 40.7325 19.0085 0.0
445 2 39.37475 17.65075 1.35775
446 2 39.37475 20.36625 4.07325
447 2 42.09025 17.65075 4.07325
448 2 42.09025 20.36625 1.35775
449 1 43.448 16.293 0.0
450 1 43.448 19.0085 2.7155
451 1 46.1635 16.293 2.7155
452 1 46.1635 19.0085 0.0
453 2 44.80575 17.65075 1.35775
454 2 44.80575 20.36625 4.07325
455 2 47.52125 17.65075 4.07325
456 2 47.52125 20.36625 1.35775
457 1 48.879 16.293 0.0
458 1 48.879 19.0085 2.7155
459 1 51.594500000000004 16.293 2.7155
460 1 51.594500000000004 19.0085 0.0
461 2 50.23675 17.65075 1.35775
462 2 50.23675 20.36625 4.07325
463 2 52.95225 17.65075 4.07325
464 2 52.95225 20.36625 1.35775
465 1 54.31 16.293 0.0
466 1 54.31 19.0085 2.7155
467 1 57.0255 16.293 2.7155
468 1 57.0255 19.0085 0.0
469 2 55.66775 17.65075 1.35775
470 2 55.66775 20.36625 4.07325
471 2 58.383250000000004 17.65075 4.07325
472 2 58.383250000000004 20.36625 1.35775
473 1 59.741 16.293 0.0
474 1 59.741 19.0085 2.7155
475 1 62.4565 16.293 2.7155
476 1 62.4565 19.0085 0.0
477 2 61.09875 17.65075 1.35775
478 2 61.09875 20.36625 4.07325
479 2 63.81425 17.65075 4.07325
480 2 63.81425 20.36625 1.35775
481 1 65.172 16.293 0.0
482 1 65.172 19.0085 2.7155
483 1 67.8875 16.293 2.7155
484 1 67.8875 19.0085 0.0
485 2 66.52975 17.65075 1.35775
486 2 66.52975 20.36625 4.07325
487 2 69.24525 17.65075 4.07325
488 2 69.24525 20.36625 1.35775
489 1 70.603 16.293 0.0
490 1 70.603 19.0085 2.7155
491 1 73.3185 16.293 2.7155
492 1 73.3185 19.0085 0.0
493 2 71.96075 17.65075 1.35775
494 2 71.96075 20.36625 4.07325
495 2 74.67625 17.65075 4.07325
496 2 74.67625 20.36625 1.35775
497 1 76.034 16.293 0.0
498 1 76.034 19.0085 2.7155
499 1 78.7495 16.293 2.7155
500 1 78.7495 19.0085 0.0
501 2 77.39175 17.65075 1.35775
502 2 77.39175 20.36625 4.07325
503 2 80.10725000000001 17.65075 4.07325
504 2 80.10725000000001 20.36625 1.35775
505 1 81.465 16.293 0.0
506 1 81.465 19.0085 2.7155
507 1 84.1805 16.293 2.7155
508 1 84.1805 19.0085 0.0
509 2 82.82275 17.65075 1.35775
510 2 82.82275 20.36625 4.07325
511 2 85.53825 17.65075 4.07325
512 2 85.53825 20.36625 1.35775
513 1 0.0 21.724 0.0
514 1 0.0 24.4395 2.7155
515 1 2.7155 21.724 2.7155
516 1 2.7155 24.4395 0.0
517 2 1.35775 23.08175 1.35775
518 2 1.35775 25.797250000000002 4.07325
519 2 4.07325 23.08175 4.07325
520 2 4.07325 25.797250000000002 1.35775
521 1 5.431 21.724 0.0
522 1 5.431 24.4395 2.7155
523 1 8.1465 21.724 2.7155
524 1 8.1465 24.4395 0.0
525 2 6.78875 23.08175 1.35775
526 2 6.78875 25.797250000000002 4.07325
527 2 9.50425 23.08175 4.07325
528 2 9.50425 25.797250000000002 1.35775
529 1 10.862 21.724 0.0
530 1 10.862 24.4395 2.7155
531 1 13.5775 21.724 2.7155
532 1 13.5775 24.4395 0.0
533 2 12.21975 23.08175 1.35775
534 2 12.21975 25.797250000000002 4.07325
535 2 14.93525 23.08175 4.07325
536 2 14.93525 25.797250000000002 1.35775
537 1 16.293 21.724 0.0
538 1 16.293 24.4395 2.7155
539 1 19.0085 21.724 2.7155
540 1 19.0085 24.4395 0.0
541 2 17.65075 23.08175 1.35775
542 2 17.65075 25.797250000000002 4.07325
543 2 20.36625 23.08175 4.07325
544 2 20.36625 25.797250000000002 1.35775
545 1 21.724 21.724 0.0
546 1 21.724 24.4395 2.7155
547 1 24.4395 21.724 2.7155
548 1 24.4395 24.4395 0.0
549 2 23.08175 23.08175 1.35775
550 2 23.08175 25.797250000000002 4.07325
551 2 25.797250000000002 23.08175 4.07325
552 2 25.797250000000002 25.797250000000002 1.35775
553 1 27.155 21.724 0.0
554 1 27.155 24.4395 2.7155
555 1 29.8705 21.724 2.7155
556 1 29.8705 24.4395 0.0
557 2 28.51275 23.08175 1.35775
558 2 28.51275 25.797250000000002 4.07325
559 2 31.22825 23.08175 4.07325
560 2 31.22825 25.797250000000002 1.35775
561 1 32.586 21.724 0.0
562 1 32.586 24.4395 2.7155
563 1 35.3015 21.724 2.7155
564 1 35.3015 24.4395 0.0
565 2 33.94375 23.08175 1.35775
566 2 33.94375 25.797250000000002 4.07325
567 2 36.65925 23.08175 4.07325
568 2 36.65925 25.797250000000002 1.35775
569 1 38.017 21.724 0.0
570 1 38.017 24.4395 2.7155
571 1 40.7325 21.724 2.7155
572 1 40.7325 24.4395 0.0
573 2 39.37475 23.08175 1.35775
574 2 39.37475 25.797250000000002 4.07325
575 2 42.09025 23.08175 4.07325
576 2 42.09025 25.797250000000002 1.35775
577 1 43.448 21.724 0.0
578 1 43.448 24.4395 2.7155
579 1 46.1635 21.724 2.7155
580 1 46.1635 24.4395 0.0
581 2 44.80575 23.08175 1.35775
582 2 44.80575 25.797250000000002 4.07325
583 2 47.52125 23.08175 4.07325
584 2 47.52125 25.797250000000002 1.35775
585 1 48.879 21.724 0.0
586 1 48.879 24.4395 2.7155
587 1 51.594500000000004 21.724 2.7155
588 1 51.594500000000004 24.4395 0.0
589 2 50.23675 23.08175 1.35775
590 2 50.23675 25.797250000000002 4.07325
591 2 52.95225 23.08175 4.07325
592 2 52.95225 25.797250000000002 1.35775
593 1 54.31 21.724 0.0
594 1 54.31 24.4395 2.7155
595 1 57.0255 21.724 2.7155
596 1 57.0255 24.4395 0.0
597 2 55.66775 23.08175 1.35775
598 2 55.66775 25.797250000000002 4.07325
599 2 58.383250000000004 23.08175 4.07325
600 2 58.383250000000004 25.797250000000002 1.35775
601 1 59.741 21.724 0.0
602 1 59.741 24.4395 2.7155
603 1 62.4565 21.724 2.7155
604 1 62.4565 24.4395 0.0
605 2 61.09875 23.08175 1.35775
606 2 61.09875 25.797250000000002 4.07325
607 2 63.81425 23.08175 4.07325
608 2 63.81425 25.797250000000002 1.35775
609 1 65.172 21.724 0.0
610 1 65.172 24.4395 2.7155
611 1 67.8875 21.724 2.7155
612 1 67.8875 24.4395 0.0
613 2 66.52975 23.08175 1.35775
614 2 66.52975 25.797250000000002 4.07325
615 2 69.24525 23.08175 4.07325
616 2 69.24525 25.797250000000002 1.35775
617 1 70.603 21.724 0.0
618 1 70.603 24.4395 2.7155
619 1 73.3185 21.724 2.7155
620 1 73.3185 24.4395 0.0
621 2 71.96075 23.08175 1.35775
622 2 71.96075 25.797250000000002 4.07325
623 2 74.67625 23.08175 4.07325
624 2 74.67625 25.797250000000002 1.35775
625 1 76.034 21.724 0.0
626 1 76.034 24.4395 2.7155
627 1 78.7495 21.724 2.7155
628 1 78.7495 24.4395 0.0
629 2 77.39175 23.08175 1.35775
630 2 77.39175 25.797250000000002 4.07325
631 2 80.10725000000001 23.08175 4.07325
632 2 80.10725000000001 25.797250000000002 1.35775
633 1 81.465 21.724 0.0
634 1 81.465 24.4395 2.7155
635 1 84.1805 21.724 2.7155
636 1 84.1805 24.4395 0.0
637 2 82.82275 23.08175 1.35775
638 2 82.82275 25.797250000000002 4.07325
639 2 85.53825 23.08175 4.07325
640 2 85.53825 25.797250000000002 1.35775
641 1 0.0 27.155 0.0
642 1 0.0 29.8705 2.7155
643 1 2.7155 27.155 2.7155
644 1 2.7155 29.8705 0.0
645 2 1.35775 28.51275 1.35775
646 2 1.35775 31.22825 4.07325
647 2 4.07325 28.51275 4.07325
648 2 4.07325 31.22825 1.35775
649 1 5.431 27.155 0.0
650 1 5.431 29.8705 2.7155
651 1 8.1465 27.155 2.7155
652 1 8.1465 29.8705 0.0
653 2 6.78875 28.51275 1.35775
654 2 6.78875 31.22825 4.07325
655 2 9.50425 28.51275 4.07325
656 2 9.50425 31.22825 1.35775
657 1 10.862 27.155 0.0
658 1 10.862 29.8705 2.7155
659 1 13.5775 27.155 2.7155
660 1 13.5775 29.8705 0.0
661 2 12.21975 28.51275 1.35775
662 2 12.21975 31.22825 4.07325
663 2 14.93525 28.51275 4.07325
664 2 14.93525 31.22825 1.35775
665 1 16.293 27.155 0.0
666 1 16.293 29.8705 2.7155
667 1 19.0085 27.155 2.7155
668 1 19.0085 29.8705 0.0
669 2 17.65075 28.51275 1.35775
670 2 17.65075 31.22825 4.07325
671 2 20.36625 28.51275 4.07325
672 2 20.36625 31.22825 1.35775
673 1 21.724 27.155 0.0
674 1 21.724 29.8705 2.7155
675 1 24.4395 27.155 2.7155
676 1 24.4395 29.8705 0.0
677 2 23.08175 28.51275 1.35775
678 2 23.08175 31.22825 4.07325
679 2 25.797250000000002 28.51275 4.07325
680 2 25.797250000000002 31.22825 1.35775
681 1 27.155 27.155 0.0
682 1 27.155 29.8705 2.7155
683 1 29.8705 27.155 2.7155
684 1 29.8705 29.8705 0.0
685 2 28.51275 28.51275 1.35775
686 2 28.51275 31.22825 4.07325
687 2 31.22825 28.51275 4.07325
688 2 31.22825 31.22825 1.35775
689 1 32.586 27.155 0.0
690 1 32.586 29.8705 2.7155
691 1 35.3015 27.155 2.7155
692 1 35.3015 29.8705 0.0
693 2 33.94375 28.51275 1.35775
694 2 33.94375 31.22825 4.07325
695 2 36.65925 28.51275 4.07325
696 2 36.65925 31.22825 1.35775
697 1 38.017 27.155 0.0
698 1 38.017 29.8705 2.7155
699 1 40.7325 27.155 2.7155
700 1 40.7325 29.8705 0.0
701 2 39.37475 28.51275 1.35775
702 2 39.37475 31.22825 4.07325
703 2 42.09025 28.51275 4.07325
704 2 42.09025 31.22825 1.35775
705 1 43.448 27.155 0.0
706 1 43.448 29.8705 2.7155
707 1 46.1635 27.155 2.7155
708 1 46.1635 29.8705 0.0
709 2 44.80575 28.51275 1.35775
710 2 44.80575 31.22825 4.07325
711 2 47.52125 28.51275 4.07325
712 2 47.52125 31.22825 1.35775
713 1 48.879 27.155 0.0
714 1 48.879 29.8705 2.7155
715 1 51.594500000000004 27.155 2.7155
716 1 51.594500000000004 29.8705 0.0
717 2 50.23675 28.51275 1.35775
718 2 50.23675 31.22825 4.07325
719 2 52.95225 28.51275 4.07325
720 2 52.95225 31.22825 1.35775
721 1 54.31 27.155 0.0
722 1 54.31 29.8705 2.7155
723 1 57.0255 27.155 2.7155
724 1 57.0255 29.8705 0.0
725 2 55.66775 28.51275 1.35775
726 2 55.66775 31.22825 4.07325
727 2 58.383250000000004 28.51275 4.07325
728 2 58.383250000000004 31.22825 1.35775
729 1 59.741 27.155 0.0
730 1 59.741 29.8705 2.7155
731 1 62.4565 27.155 2.7155
732 1 62.4565 29.8705 0.0
733 2 61.09875 28.51275 1.35775
734 2 61.09875 31.22825 4.07325
735 2 63.81425 28.51275 4.07325
736 2 63.81425 31.22825 1.35775
737 1 65.172 27.155 0.0
738 1 65.172 29.8705 2.7155
739 1 67.8875 27.155 2.7155
740 1 67.8875 29.8705 0.0
741 2 66.52975 28.51275 1.35775
742 2 66.52975 31.22825 4.07325
743 2 69.24525 28.51275 4.07325
744 2 69.24525 31.22825 1.35775
745 1 70.603 27.155 0.0
746 1 70.603 29.8705 2.7155
747 1 73.3185 27.155 2.7155
748 1 73.3185 29.8705 0.0
749 2 71.96075 28.51275 1.35775
750 2 71.96075 31.22825 4.07325
751 2 74.67625 28.51275 4.07325
752 2 74.67625 31.22825 1.35775
753 1 76.034 27.155 0.0
754 1 76.034 29.8705 2.7155
755 1 78.7495 27.155 2.7155
756 1 78.7495 29.8705 0.0
757 2 77.39175 28.51275 1.35775
758 2 77.39175 31.22825 4.07325
759 2 80.10725000000001 28.51275 4.07325
760 2 80.10725000000001 31.22825 1.35775
761 1 81.465 27.155 0.0
762 1 81.465 29.8705 2.7155
763 1 84.1805 27.155 2.7155
764 1 84.1805 29.8705 0.0
765 2 82.82275 28.51275 1.35775
766 2 82.82275 31.22825 4.07325
767 2 85.53825 28.51275 4.07325
768 2 85.53825 31.22825 1.35775
769 1 0.0 32.586 0.0
770 1 0.0 35.3015 2.7155
771 1 2.7155 32.586 2.7155
772 1 2.7155 35.3015 0.0
773 2 1.35775 33.94375 1.35775
774 2 1.35775 36.65925 4.07325
775 2 4.07325 33.94375 4.07325
776 2 4.07325 36.65925 1.35775
777 1 5.431 32.586 0.0
778 1 5.431 35.3015 2.7155
779 1 8.1465 32.586 2.7155
780 1 8.1465 35.3015 0.0
781 2 6.78875 33.94375 1.35775
782 2 6.78875 36.65925 4.07325
783 2 9.50425 33.94375 4.07325
784 2 9.50425 36.65925 1.35775
785 1 10.862 32.586 0.0
786 1 10.862 35.3015 2.7155
787 1 13.5775 32.586 2.7155
788 1 13.5775 35.3015 0.0
789 2 12.21975 33.94375 1.35775
790 2 12.21975 36.65925 4.07325
791 2 14.93525 33.94375 4.07325
792 2 14.93525 36.65925 1.35775
793 1 16.293 32.586 0.0
794 1 16.293 35.3015 2.7155
795 1 19.0085 32.586 2.7155
796 1 19.0085 35.3015 0.0
797 2 17.65075 33.94375 1.35775
798 2 17.65075 36.65925 4.07325
799 2 20.36625 33.94375 4.07325
800 2 20.36625 36.65925 1.35775
801 1 21.724 32.586 0.0
802 1 21.724 35.3015 2.7155
803 1 24.4395 32.586 2.7155
804 1 24.4395 35.3015 0.0
805 2 23.08175 33.94375 1.35775
806 2 23.08175 36.65925 4.07325
807 2 25.797250000000002 33.94375 4.07325
808 2 25.797250000000002 36.65925 1.35775
809 1 27.155 32.586 0.0
810 1 27.155 35.3015 2.7155
811 1 29.8705 32.586 2.7155
812 1 29.8705 35.3015 0.0
813 2 28.51275 33.94375 1.35775
814 2 28.51275 36.65925 4.07325
815 2 31.22825 33.94375 4.07325
816 2 31.22825 36.65925 1.35775
817 1 32.586 32.586 0.0
818 1 32.586 35.3015 2.7155
819 1 35.3015 32.586 2.7155
820 1 35.3015 35.3015 0.0
821 2 33.94375 33.94375 1.35775
822 2 33.94375 36.65925 4.07325
823 2 36.65925 33.94375 4.07325
824 2 36.65925 36.65925 1.35775
825 1 38.017 32.586 0.0
826 1 38.017 35.3015 2.7155
827 1 40.7325 32.586 2.7155
828 1 40.7325 35.3015 0.0
829 2 39.37475 33.94375 1.35775
830 2 39.37475 36.65925 4.07325
831 2 42.09025 33.94375 4.07325
832 2 42.09025 36.65925 1.35775
833 1 43.448 32.586 0.0
834 1 43.448 35.3015 2.7155
835 1 46.1635 32.586 2.7155
836 1 46.1635 35.3015 0.0
837 2 44.80575 33.94375 1.35775
838 2 44.80575 36.65925 4.07325
839 2 47.52125 33.94375 4.07325
840 2 47.52125 36.65925 1.35775
841 1 48.879 32.586 0.0
842 1 48.879 35.3015 2.7155
843 1 51.594500000000004 32.586 2.7155
844 1 51.594500000000004 35.3015 0.0
845 2 50.23675 33.94375 1.35775
846 2 50.23675 36.65925 4.07325
847 2 52.95225 33.94375 4.07325
848 2 52.95225 36.65925 1.35775
849 1 54.31 32.586 0.0
850 1 54.31 35.3015 2.7155
851 1 57.0255 32.586 2.7155
852 1 57.0255 35.3015 0.0
853 2 55.66775 33.94375 1.35775
854 2 55.66775 36.65925 4.07325
855 2 58.383250000000004 33.94375 4.07325
856 2 58.383250000000004 36.65925 1.35775
857 1 59.741 32.586 0.0
858 1 59.741 35.3015 2.7155
859 1 62.4565 32.586 2.7155
860 1 62.4565 35.3015 0.0
861 2 61.09875 33.94375 1.35775
862 2 61.09875 36.65925 4.07325
863 2 63.81425 33.94375 4.07325
864 2 63.81425 36.65925 1.35775
865 1 65.172 32.586 0.0
866 1 65.172 35.3015 2.7155
867 1 67.8875 32.586 2.7155
868 1 67.8875 35.3015 0.0
869 2 66.52975 33.94375 1.35775
870 2 66.52975 36.65925 4.07325
871 2 69.24525 33.94375 4.07325
872 2 69.24525 36.65925 1.35775
873 1 70.603 32.586 0.0
874 1 70.603 35.3015 2.7155
875 1 73.3185 32.586 2.7155
876 1 73.3185 35.3015 0.0
877 2 71.96075 33.94375 1.35775
878 2 71.96075 36.65925 4.07325
879 2 74.67625 33.94375 4.07325
880 2 74.67625 36.65925 1.35775
881 1 76.034 32.586 0.0
882 1 76.034 35.3015 2.7155
883 1 78.7495 32.586 2.7155
884 1 78.7495 35.3015 0.0
885 2 77.39175 33.94375 1.35775
886 2 77.39175 36.65925 4.07325
887 2 80.10725000000001 33.94375 4.07325
888 2 80.10725000000001 36.65925 1.35775
889 1 81.465 32.586 0.0
890 1 81.465 35.3015 2.7155
891 1 84.1805 32.586 2.7155
892 1 84.1805 35.3015 0.0
893 2 82.82275 33.94375 1.35775
894 2 82.82275 36.65925 4.07325
895 2 85.53825 33.94375 4.07325
896 2 85.53825 36.65925 1.35775
897 1 0.0 38.017 0.0
898 1 0.0 40.7325 2.7155
899 1 2.7155 38.017 2.7155
900 1 2.7155 40.7325 0.0
901 2 1.35775 39.37475 1.35775
902 2 1.35775 42.09025 4.07325
903 2 4.07325 39.37475 4.07325
904 2 4.07325 42.09025 1.35775
905 1 5.431 38.017 0.0
906 1 5.431 40.7325 2.7155
907 1 8.1465 38.017 2.7155
908 1 8.1465 40.7325 0.0
909 2 6.78875 39.37475 1.35775
910 2 6.78875 42.09025 4.07325
911 2 9.50425 39.37475 4.07325
912 2 9.50425 42.09025 1.35775
913 1 10.862 38.017 0.0
914 1 10.862 40.7325 2.7155
915 1 13.5775 38.017 2.7155
916 1 13.5775 40.7325 0.0
917 2 12.21975 39.37475 1.35775
918 2 12.21975 42.09025 4.07325
919 2 14.93525 39.37475 4.07325
920 2 14.93525 42.09025 1.35775
921 1 16.293 38.017 0.0
922 1 16.293 40.7325 2.7155
923 1 19.0085 38.017 2.7155
924 1 19.0085 40.7325 0.0
925 2 17.65075 39.37475 1.35775
926 2 17.65075 42.09025 4.07325
927 2 20.36625 39.37475 4.07325
928 2 20.36625 42.09025 1.35775
929 1 21.724 38.017 0.0
930 1 21.724 40.7325 2.7155
931 1 24.4395 38.017 2.7155
932 1 24.4395 40.7325 0.0
933 2 23.08175 39.37475 1.35775
934 2 23.08175 42.09025 4.07325
935 2 25.797250000000002 39.37475 4.07325
936 2 25.797250000000002 42.09025 1.35775
937 1 27.155 38.017 0.0
938 1 27.155 40.7325 2.7155
939 1 29.8705 38.017 2.7155
940 1 29.8705 40.7325 0.0
941 2 28.51275 39.37475 1.35775
942 2 28.51275 42.09025 4.07325
943 2 31.22825 39.37475 4.07325
944 2 31.22825 42.09025 1.35775
945 1 32.586 38.017 0.0
946 1 32.586 40.7325 2.7155
947 1 35.3015 38.017 2.7155
948 1 35.3015 40.7325 0.0
949 2 33.94375 39.37475 1.35775
950 2 33.94375 42.09025 4.07325
951 2 36.65925 39.37475 4.07325
952 2 36.65925 42.09025 1.35775
953 1 38.017 38.017 0.0
954 1 38.017 40.7325 2.7155
955 1 40.7325 38.017 2.7155
956 1 40.7325 40.7325 0.0
957 2 39.37475 39.37475 1.35775
958 2 39.37475 42.09025 4.07325
959 2 42.09025 39.37475 4.07325
960 2 42.09025 42.09025 1.35775
961 1 43.448 38.017 0.0
962 1 43.448 40.7325 2.7155
963 1 46.1635 38.017 2.7155
964 1 46.1635 40.7325 0.0
965 2 44.80575 39.37475 1.35775
966 2 44.80575 42.09025 4.07325
967 2 47.52125 39.37475 4.07325
968 2 47.52125 42.09025 1.35775
969 1 48.879 38.017 0.0
970 1 48.879 40.7325 2.7155
971 1 51.594500000000004 38.017 2.7155
972 1 51.594500000000004 40.7325 0.0
973 2 50.23675 39.37475 1.35775
974 2 50.23675 42.09025 4.07325
975 2 52.95225 39.37475 4.07325
976 2 52.95225 42.09025 1.35775
977 1 54.31 38.017 0.0
978 1 54.31 40.7325 2.7155
979 1 57.0255 38.017 2.7155
980 1 57.0255 40.7325 0.0
981 2 55.66775 39.37475 1.35775
982 2 55.66775 42.09025 4.07325
983 2 58.383250000000004 39.37475 4.07325
984 2 58.383250000000004 42.09025 1.35775
985 1 59.741 38.017 0.0
986 1 59.741 40.7325 2.7155
987 1 62.4565 38.017 2.7155
988 1 62.4565 40.7325 0.0
989 2 61.09875 39.37475 1.35775
990 2 61.09875 42.09025 4.07325
991 2 63.81425 39.37475 4.07325
992 2 63.81425 42.09025 1.35775
993 1 65.172 38.017 0.0
994 1 65.172 40.7325 2.7155
995 1 67.8875 38.017 2.7155
996 1 67.8875 40.7325 0.0
997 2 66.52975 39.37475 1.35775
998 2 66.52975 42.09025 4.07325
999 2 69.24525 39.37475 4.07325
1000 2 69.24525 42.09025 1.35775
1001 1 70.603 38.017 0.0
1002 1 70.603 40.7325 2.7155
1003 1 73.3185 38.017 2.7155
1004 1 73.3185 40.7325 0.0
1005 2 71.96075 39.37475 1.35775
1006 2 71.96075 42.09025 4.07325
1007 2 74.67625 39.37475 4.07325