LAMMPS (16 Mar 2018)
timestep	0.0005
variable   	t equal 300
units		metal
atom_style	atomic

read_data	data.si
  orthogonal box = (-0.678875 -0.678875 -0.678875) to (86.2171 86.2171 86.2171)
  2 by 2 by 3 MPI processor grid
  reading atoms ...
  32768 atoms

thermo		1000

neighbor        2 bin
neigh_modify    delay 10
neighbor        2.0 nsq
neigh_modify    delay 0 every 1 check yes

pair_style	tersoff
pair_coeff	* * SiCGe.tersoff Si(D) Si(D)

dump		snap all atom 1000 snap.lammpstrj

velocity        all create $t ${SEED}
velocity        all create 300 ${SEED}
velocity        all create 300 14238

### EQUILIBRATE ###
fix             NVT all nvt temp $t $t 0.05
fix             NVT all nvt temp 300 $t 0.05
fix             NVT all nvt temp 300 300 0.05
run             50000
Neighbor list info ...
  update every 1 steps, delay 0 steps, check yes
  max neighbors/atom: 2000, page size: 100000
  master list distance cutoff = 5
  ghost atom cutoff = 5
  1 neighbor lists, perpetual/occasional/extra = 1 0 0
  (1) pair tersoff, perpetual
      attributes: full, newton on
      pair build: full/nsq
      stencil: none
      bin: none
Per MPI rank memory allocation (min/avg/max) = 3.934 | 3.939 | 3.948 Mbytes
Step Temp E_pair E_mol TotEng Press 
       0          300   -151702.51            0   -150431.87    2611.8729 
    1000    301.61213   -150414.32            0   -149136.86    5914.6921 
    2000    304.18817   -150412.27            0    -149123.9    6129.4343 
    3000    298.82874    -150419.5            0   -149153.82    5996.9634 
    4000    299.54727   -150421.82            0    -149153.1     6076.775 
    5000    297.38586   -150424.08            0   -149164.52    5966.5628 
    6000    301.75332   -150433.27            0   -149155.21    6035.3155 
    7000    301.22054   -150430.19            0   -149154.38    5999.1398 
    8000     297.7396   -150402.39            0   -149141.32    6012.8156 
    9000    298.18902   -150416.73            0   -149153.76    5974.7297 
   10000    301.73181   -150423.45            0   -149145.47    6017.4951 
   11000    301.73655   -150430.43            0   -149152.43    6010.0754 
   12000    298.91957   -150409.92            0   -149143.85     5995.576 
   13000    301.39886   -150421.12            0   -149144.56    6063.5497 
   14000     297.9447   -150412.47            0   -149150.53    5991.8778 
   15000    298.73796   -150418.99            0    -149153.7    6003.9693 
   16000    300.20124   -150413.81            0   -149142.31    6011.7557 
   17000    302.48972   -150425.46            0   -149144.28    6030.4356 
   18000    300.22964   -150415.61            0      -149144    6073.4606 
   19000    302.90995   -150417.12            0   -149134.16    6100.4824 
   20000    300.80958   -150416.89            0   -149142.82    6030.8005 
   21000    300.68309   -150420.75            0   -149147.21    6041.5492 
   22000    301.81853   -150427.59            0   -149149.25    6029.4073 
   23000    297.94373   -150417.24            0   -149155.31    6033.1124 
   24000    298.58342   -150411.44            0    -149146.8     6058.937 
   25000     302.2525   -150420.69            0   -149140.51    6067.9121 
   26000    294.90475   -150413.76            0    -149164.7    5948.2389 
   27000     299.1883   -150416.63            0   -149149.43    6039.8956 
   28000    298.00141   -150416.07            0    -149153.9    6024.6404 
   29000    302.29068   -150421.69            0   -149141.35    6063.3755 
   30000    299.27972   -150416.21            0   -149148.62    6021.4578 
   31000    301.23325    -150418.2            0   -149142.34    6056.3336 
   32000    296.74765   -150413.19            0   -149156.32    6009.2771 
   33000    300.63997   -150425.03            0   -149151.68    6041.9688 
   34000    296.40292   -150406.14            0   -149150.73    5994.0074 
   35000    300.95773   -150409.23            0   -149134.53    6023.5231 
   36000    298.53096   -150425.47            0   -149161.06    5989.1091 
   37000    297.66307   -150409.62            0   -149148.88    6011.9573 
   38000    301.42409   -150426.78            0   -149150.11     6051.451 
   39000     300.1191   -150421.75            0    -149150.6    5993.8529 
   40000    294.59772   -150416.55            0   -149168.79    5939.3993 
   41000    299.82604    -150416.2            0    -149146.3    6013.7854 
   42000      301.733   -150430.45            0   -149152.47    6044.3424 
   43000    300.94989   -150415.71            0   -149141.04    6047.2526 
   44000    301.27312   -150419.25            0   -149143.22    5990.5926 
   45000    298.73702   -150409.03            0   -149143.74    6010.3859 
   46000    296.55322   -150404.11            0   -149148.07    6027.3738 
   47000    300.34765   -150418.95            0   -149146.84    6077.6262 
   48000    300.90353   -150423.08            0   -149148.61    6054.1491 
   49000    296.04156   -150411.49            0   -149157.61    5998.4914 
   50000    300.82555   -150424.78            0   -149150.64    6039.1896 
Loop time of 945.515 on 12 procs for 50000 steps with 32768 atoms

Performance: 4.569 ns/day, 5.253 hours/ns, 52.881 timesteps/s
99.9% CPU use with 12 MPI tasks x no OpenMP threads

MPI task timing breakdown:
Section |  min time  |  avg time  |  max time  |%varavg| %total
---------------------------------------------------------------
Pair    | 564.67     | 649.34     | 774.2      | 289.1 | 68.68
Neigh   | 0          | 0          | 0          |   0.0 |  0.00
Comm    | 158.83     | 283.6      | 368.05     | 436.8 | 29.99
Output  | 0.36696    | 0.36715    | 0.36805    |   0.0 |  0.04
Modify  | 7.962      | 8.1042     | 8.3137     |   3.8 |  0.86
Other   |            | 4.098      |            |       |  0.43

Nlocal:    2730.67 ave 2816 max 2688 min
Histogram: 8 0 0 0 0 0 0 0 0 4
Nghost:    3002.67 ave 3112 max 2784 min
Histogram: 4 0 0 0 0 0 0 0 0 8
Neighs:    0 ave 0 max 0 min
Histogram: 12 0 0 0 0 0 0 0 0 0
FullNghs:  76458.7 ave 78848 max 75264 min
Histogram: 8 0 0 0 0 0 0 0 0 4

Total # of neighbors = 917504
Ave neighs/atom = 28
Neighbor list builds = 0
Dangerous builds = 0
unfix           NVT

fix             NPT all npt temp $t $t 0.05 x 0 0 0.5 y 0 0 0.5 z 0 0 0.5 couple none
fix             NPT all npt temp 300 $t 0.05 x 0 0 0.5 y 0 0 0.5 z 0 0 0.5 couple none
fix             NPT all npt temp 300 300 0.05 x 0 0 0.5 y 0 0 0.5 z 0 0 0.5 couple none
run             50000
Per MPI rank memory allocation (min/avg/max) = 3.934 | 3.939 | 3.948 Mbytes
Step Temp E_pair E_mol TotEng Press Volume 
   50000    300.82555   -150424.78            0   -149150.64    6039.1896    656144.29 
   51000     298.6111   -150397.08            0   -149132.32    155.12324    660187.62 
   52000    301.25096   -150412.19            0   -149136.25    -94.80547    660332.57 
   53000    299.42892   -150418.19            0   -149149.97    226.49965    660068.05 
   54000     301.2609   -150413.07            0   -149137.09   -122.58154    660369.65 
   55000    300.58165   -150423.33            0   -149150.23    132.38087    660157.14 
   56000     304.2982   -150421.02            0   -149132.18    68.766931    660240.33 
   57000    298.67778   -150415.61            0   -149150.57    191.74309    660113.31 
   58000    301.10051   -150408.48            0   -149133.18   -4.7033736    660283.05 
   59000    299.88339    -150416.5            0   -149146.36    -66.47581    660279.23 
   60000    298.48537   -150413.27            0   -149149.04    174.96959    660179.92 
   61000    299.62241   -150410.85            0   -149141.81    213.09847    660137.15 
   62000    300.12413   -150411.63            0   -149140.46    245.71645    660120.51 
   63000    296.83164   -150411.93            0   -149154.71   -11.236096    660228.11 
   64000    298.94376   -150419.62            0   -149153.46    408.81368    659967.56 
   65000    298.27766   -150412.85            0   -149149.51     162.1974    660119.22 
   66000    301.24245   -150414.04            0   -149138.14   -24.808286    660281.99 
   67000    298.90614   -150409.66            0   -149143.65   -28.682575    660287.26 
   68000    299.07265   -150416.02            0   -149149.31   -22.483361    660263.99 
   69000    301.22162   -150413.07            0   -149137.26   -170.63712     660406.6 
   70000    301.29626   -150418.97            0   -149142.84   -37.173998    660276.54 
   71000    299.53561   -150410.65            0   -149141.97    215.77377    660153.62 
   72000    299.19987   -150423.11            0   -149155.86    -358.5927    660490.72 
   73000    299.40473   -150409.76            0   -149141.65   -267.60127    660471.01 
   74000     299.7731   -150399.65            0   -149129.97   -99.268213    660364.82 
   75000    301.14122   -150405.02            0   -149129.55    262.95798    660118.63 
   76000    301.51417   -150406.85            0    -149129.8    87.436098    660218.89 
   77000    301.35414    -150417.9            0   -149141.52    136.15179    660165.21 
   78000    298.18731   -150426.48            0   -149163.52    102.43598    660167.01 
   79000    299.91382   -150425.36            0   -149155.09   -40.264202    660293.67 
   80000    298.49025   -150402.77            0   -149138.52    181.03564    660148.61 
   81000    298.79481   -150417.57            0   -149152.03    2.5965128    660266.98 
   82000    300.25574   -150414.19            0   -149142.46   -15.588719    660286.64 
   83000    297.67277   -150411.03            0   -149150.24    384.44098    659977.53 
   84000    300.52094    -150407.2            0   -149134.35    210.49222    660142.06 
   85000    298.94656   -150411.65            0   -149145.47    60.502714    660211.46 
   86000    301.70966      -150418            0   -149140.12   -11.457356    660297.87 
   87000    300.51054   -150418.99            0   -149146.19   -61.948808    660316.15 
   88000     301.5133   -150414.64            0   -149137.59    95.643265    660201.18 
   89000    300.62904   -150408.48            0   -149135.18    166.05818     660173.3 
   90000    301.78339   -150401.98            0   -149123.78    49.637461    660284.28 
   91000    300.26778   -150404.08            0   -149132.31   -586.66933    660678.04 
   92000    301.86721   -150403.14            0   -149124.59   -48.405489    660335.47 
   93000    298.26251   -150410.25            0   -149146.97   -52.957196    660295.04 
   94000    298.76548   -150413.64            0   -149148.22   -90.099954    660319.73 
   95000    301.30692   -150419.93            0   -149143.75   -15.462215    660281.16 
   96000    297.37304   -150405.44            0   -149145.93    241.79643     660107.5 
   97000    300.11174   -150405.44            0   -149134.33    200.12771    660159.59 
   98000    298.11347   -150417.91            0   -149155.26    463.04018    659929.97 
   99000    300.95662   -150422.25            0   -149147.56    156.91184    660171.39 
  100000    300.57865   -150411.63            0   -149138.54    169.38817    660175.42 
Loop time of 938.571 on 12 procs for 50000 steps with 32768 atoms

Performance: 4.603 ns/day, 5.214 hours/ns, 53.272 timesteps/s
100.0% CPU use with 12 MPI tasks x no OpenMP threads

MPI task timing breakdown:
Section |  min time  |  avg time  |  max time  |%varavg| %total
---------------------------------------------------------------
Pair    | 530.94     | 612.2      | 813.59     | 397.5 | 65.23
Neigh   | 0          | 0          | 0          |   0.0 |  0.00
Comm    | 106.7      | 307.79     | 388.84     | 559.7 | 32.79
Output  | 0.33843    | 0.33865    | 0.3395     |   0.0 |  0.04
Modify  | 12.703     | 13.466     | 14.505     |  13.6 |  1.43
Other   |            | 4.775      |            |       |  0.51

Nlocal:    2730.67 ave 2816 max 2688 min
Histogram: 8 0 0 0 0 0 0 0 0 4
Nghost:    3002.83 ave 3112 max 2784 min
Histogram: 4 0 0 0 0 0 0 0 0 8
Neighs:    0 ave 0 max 0 min
Histogram: 12 0 0 0 0 0 0 0 0 0
FullNghs:  76458.7 ave 78848 max 75264 min
Histogram: 8 0 0 0 0 0 0 0 0 4

Total # of neighbors = 917504
Ave neighs/atom = 28
Neighbor list builds = 0
Dangerous builds = 0
unfix		NPT

fix             NVE all nve
run             50000
Per MPI rank memory allocation (min/avg/max) = 3.934 | 3.939 | 3.948 Mbytes
Step Temp E_pair E_mol TotEng Press 
  100000    300.57865   -150411.63            0   -149138.54    169.38817 
  101000    302.02337   -150417.76            0   -149138.55    147.87223 
  102000    299.16508   -150405.64            0   -149138.54    151.10319 
  103000    299.52144   -150407.16            0   -149138.55    158.95168 
  104000    300.62531   -150411.84            0   -149138.55    163.15062 
  105000     299.9174   -150408.84            0   -149138.55     153.6882 
  106000    300.64584   -150411.93            0   -149138.55     182.3477 
  107000     300.3476   -150410.66            0   -149138.55    136.91486 
  108000    300.97312   -150413.31            0   -149138.55    168.81888 
  109000    299.51174   -150407.11            0   -149138.54    169.51525 
  110000     300.7633   -150412.42            0   -149138.55    162.24617 
  111000    300.99569   -150413.41            0   -149138.55    152.23965 
  112000    300.33731   -150410.61            0   -149138.54    162.24169 
  113000    300.59405    -150411.7            0   -149138.55    153.04041 
  114000    299.96195   -150409.02            0   -149138.54    180.11726 
  115000    300.24208   -150410.21            0   -149138.55    157.29951 
  116000    299.94859   -150408.97            0   -149138.54    168.52764 
  117000    299.45889   -150406.88            0   -149138.54    183.59229 
  118000    301.70679   -150416.42            0   -149138.55    147.53221 
  119000    298.78102   -150404.02            0   -149138.54    171.47344 
  120000    303.50059   -150424.03            0   -149138.56    161.14905 
  121000     299.1799   -150405.72            0   -149138.55    127.88455 
  122000    300.57998   -150411.64            0   -149138.54    174.76904 
  123000    300.09494    -150409.6            0   -149138.55    127.97252 
  124000    298.85015   -150404.31            0   -149138.54    154.44481 
  125000    301.45488   -150415.36            0   -149138.56    140.31342 
  126000    300.97695   -150413.32            0   -149138.55    166.54766 
  127000    298.19026   -150401.51            0   -149138.53    158.12945 
  128000    300.87323   -150412.89            0   -149138.55    141.92949 
  129000    300.00974   -150409.23            0   -149138.55    168.79725 
  130000    301.93177   -150417.38            0   -149138.56    176.33578 
  131000    301.05237   -150413.65            0   -149138.55     153.6717 
  132000     301.0232   -150413.52            0   -149138.55    155.16648 
  133000    299.91966   -150408.85            0   -149138.55    165.44507 
  134000    299.58357   -150407.42            0   -149138.55    164.34191 
  135000    300.30588   -150410.49            0   -149138.55     180.5224 
  136000    300.17044   -150409.91            0   -149138.55    177.34219 
  137000    300.54795   -150411.51            0   -149138.55    176.94408 
  138000    299.99721   -150409.18            0   -149138.55     162.3967 
  139000     300.7221   -150412.25            0   -149138.55    169.72684 
  140000    300.30361   -150410.47            0   -149138.54    175.12188 
  141000    299.91932   -150408.84            0   -149138.55    172.84334 
  142000    300.89352   -150412.97            0   -149138.55    189.45295 
  143000    300.03696   -150409.34            0   -149138.55    199.24514 
  144000    298.62014   -150403.33            0   -149138.54    179.70057 
  145000    301.98988   -150417.63            0   -149138.56    166.46728 
  146000    301.14191   -150414.03            0   -149138.55    193.41448 
  147000    299.89412   -150408.74            0   -149138.55    189.92498 
  148000    301.10482   -150413.87            0   -149138.55    173.29709 
  149000    300.72279   -150412.26            0   -149138.55    141.75321 
  150000     300.0355   -150409.34            0   -149138.55    178.80577 
Loop time of 1017.85 on 12 procs for 50000 steps with 32768 atoms

Performance: 4.244 ns/day, 5.655 hours/ns, 49.123 timesteps/s
99.9% CPU use with 12 MPI tasks x no OpenMP threads

MPI task timing breakdown:
Section |  min time  |  avg time  |  max time  |%varavg| %total
---------------------------------------------------------------
Pair    | 723.93     | 791.27     | 896.04     | 172.6 | 77.74
Neigh   | 0          | 0          | 0          |   0.0 |  0.00
Comm    | 112.93     | 217.23     | 284.4      | 328.0 | 21.34
Output  | 0.45872    | 0.45917    | 0.46081    |   0.1 |  0.05
Modify  | 2.4622     | 3.5227     | 4.1874     |  24.4 |  0.35
Other   |            | 5.366      |            |       |  0.53

Nlocal:    2730.67 ave 2816 max 2688 min
Histogram: 8 0 0 0 0 0 0 0 0 4
Nghost:    3002.42 ave 3112 max 2784 min
Histogram: 4 0 0 0 0 0 0 0 0 8
Neighs:    0 ave 0 max 0 min
Histogram: 12 0 0 0 0 0 0 0 0 0
FullNghs:  76458.7 ave 78848 max 75264 min
Histogram: 8 0 0 0 0 0 0 0 0 4

Total # of neighbors = 917504
Ave neighs/atom = 28
Neighbor list builds = 0
Dangerous builds = 0
unfix           NVE
##################

### THERMALIZE ###
fix             NVT all nvt temp $t $t 0.05
fix             NVT all nvt temp 300 $t 0.05
fix             NVT all nvt temp 300 300 0.05
run             50000
Per MPI rank memory allocation (min/avg/max) = 3.934 | 3.939 | 3.948 Mbytes
Step Temp E_pair E_mol TotEng Press 
  150000     300.0355   -150409.34            0   -149138.55    178.80577 
  151000     299.9039   -150409.63            0    -149139.4    185.92538 
  152000    301.74592   -150418.47            0   -149140.44    166.04704 
  153000    299.71554   -150416.26            0   -149146.82    165.38462 
  154000    300.73061   -150419.46            0   -149145.73    162.07763 
  155000    299.19349   -150410.01            0   -149142.79    202.96558 
  156000    300.72636   -150407.78            0   -149134.06    198.43169 
  157000    299.03051   -150414.83            0   -149148.29    210.86537 
  158000    299.20368   -150407.11            0   -149139.84    154.27559 
  159000    301.34038    -150413.9            0   -149137.58    174.28116 
  160000    301.03078   -150409.56            0   -149134.56    200.48419 
  161000    298.59675   -150416.51            0   -149151.82    153.43774 
  162000    299.91459   -150413.67            0   -149143.39    147.38651 
  163000    299.26564   -150405.91            0   -149138.38    165.56653 
  164000    301.15259   -150419.67            0   -149144.15    135.51263 
  165000     299.7996   -150419.26            0   -149149.47    157.38106 
  166000    298.71736   -150410.43            0   -149145.22    145.45356 
  167000    302.34424   -150422.61            0   -149142.05    141.13422 
  168000    299.58383   -150415.24            0   -149146.36    138.47811 
  169000    300.19753   -150407.27            0   -149135.79    148.47057 
  170000    298.16452   -150405.87            0   -149143.01    137.89742 
  171000    299.67806    -150414.3            0   -149145.02    153.10637 
  172000    299.90415   -150420.72            0   -149150.48    100.23652 
  173000    299.68541   -150416.12            0   -149146.81    171.85875 
  174000    300.09546   -150413.12            0   -149142.08    155.59678 
  175000    297.79316   -150407.58            0   -149146.29    146.00442 
  176000    299.00023   -150416.01            0   -149149.61    145.40747 
  177000    299.67595   -150409.14            0   -149139.87    155.81981 
  178000    300.65002   -150418.52            0   -149145.13    157.48628 
  179000     299.6143   -150413.44            0   -149144.43    125.88305 
  180000    301.00445   -150418.68            0   -149143.79    112.55886 
  181000    298.99121   -150418.34            0   -149151.98    108.02363 
  182000    303.01961    -150415.9            0   -149132.47     153.7845 
  183000    300.09247   -150408.67            0   -149137.63    151.06538 
  184000    298.79567   -150412.49            0   -149146.95    144.48597 
  185000    297.99537   -150408.98            0   -149146.83    156.65851 
  186000    299.78106   -150429.53            0   -149159.82    132.02282 
  187000     300.9362   -150406.93            0   -149132.32    146.51474 
  188000    299.14139   -150407.36            0   -149140.36    146.91444 
  189000     301.2254   -150408.89            0   -149133.06    143.76296 
  190000    300.50605   -150425.05            0   -149152.27    118.76131 
  191000    301.12521   -150415.54            0   -149140.13    153.59467 
  192000    299.69675   -150418.85            0    -149149.5    117.18881 
  193000    298.12543   -150420.58            0   -149157.88    88.270196 
  194000    297.21694   -150423.29            0   -149164.44    102.90339 
  195000    301.19634   -150404.64            0   -149128.93     181.9938 
  196000    299.50513   -150412.27            0   -149143.72    140.72467 
  197000    301.21823   -150412.18            0   -149136.38    186.65733 
  198000    302.92423   -150418.74            0   -149135.71    128.21817 
  199000    299.36306   -150420.98            0   -149153.04    94.955799 
  200000    299.21592   -150411.55            0   -149144.23    153.12664 
Loop time of 1056.92 on 12 procs for 50000 steps with 32768 atoms

Performance: 4.087 ns/day, 5.872 hours/ns, 47.307 timesteps/s
99.9% CPU use with 12 MPI tasks x no OpenMP threads

MPI task timing breakdown:
Section |  min time  |  avg time  |  max time  |%varavg| %total
---------------------------------------------------------------
Pair    | 710.75     | 823.63     | 950.25     | 320.5 | 77.93
Neigh   | 0          | 0          | 0          |   0.0 |  0.00
Comm    | 92.436     | 218.59     | 330.7      | 620.5 | 20.68
Output  | 0.48682    | 0.48702    | 0.48807    |   0.0 |  0.05
Modify  | 8.6503     | 9.4836     | 9.8646     |  10.4 |  0.90
Other   |            | 4.72       |            |       |  0.45

Nlocal:    2730.67 ave 2816 max 2688 min
Histogram: 8 0 0 0 0 0 0 0 0 4
Nghost:    3002.67 ave 3112 max 2784 min
Histogram: 4 0 0 0 0 0 0 0 0 8
Neighs:    0 ave 0 max 0 min
Histogram: 12 0 0 0 0 0 0 0 0 0
FullNghs:  76458.7 ave 78848 max 75264 min
Histogram: 8 0 0 0 0 0 0 0 0 4

Total # of neighbors = 917504
Ave neighs/atom = 28
Neighbor list builds = 0
Dangerous builds = 0
unfix           NVT
##################

### COLLECT VELS ###
fix		NVE all nve

dump		vels all custom 40 vels.dat id type vx vy vz
dump_modify	vels format line "%d %d %0.8g %0.8g %0.8g"
dump_modify	vels sort id

dump		pos all custom 10000 pos.dat id type x y z
dump_modify     pos format line "%d %d %0.8g %0.8g %0.8g"
dump_modify     pos sort id

run		500000
Per MPI rank memory allocation (min/avg/max) = 7.022 | 7.039 | 7.052 Mbytes
Step Temp E_pair E_mol TotEng Press 
  200000    299.21592   -150411.55            0   -149144.23    153.12664 
  201000    300.56988   -150417.29            0   -149144.23    138.80785 
  202000    300.22825   -150415.84            0   -149144.23    161.16133 
  203000     299.2536   -150411.71            0   -149144.23    151.25979 
  204000    299.49444   -150412.73            0   -149144.23    140.36552 
  205000    298.28741   -150407.61            0   -149144.23    111.35203 
  206000    301.03399   -150419.26            0   -149144.24    159.98343 
  207000    300.54294   -150417.18            0   -149144.24     136.4852 
  208000    300.74149   -150418.02            0   -149144.24    148.46454 
  209000    301.53404   -150421.38            0   -149144.24    113.11526 
  210000    299.92872   -150414.57            0   -149144.23    145.58121 
  211000    299.36505   -150412.18            0   -149144.23    128.51778 
  212000    299.75189   -150413.82            0   -149144.23    139.25587 
  213000    299.14659   -150411.25            0   -149144.23    121.85818 
  214000    300.96214   -150418.95            0   -149144.24    129.71896 
  215000    297.68634   -150405.06            0   -149144.22    153.31701 
  216000    299.29559   -150411.88            0   -149144.23    166.19227 
  217000    297.82431   -150405.64            0   -149144.21    171.29607 
  218000    301.50362   -150421.25            0   -149144.24    155.69651 
  219000    299.88704   -150414.39            0   -149144.23    133.96847 
  220000    300.29751   -150416.14            0   -149144.24     114.4777 
  221000    299.64478   -150413.36            0   -149144.23    138.94212 
  222000    299.86113   -150414.29            0   -149144.24    147.25595 
  223000     299.8357   -150414.18            0   -149144.23    153.09702 
  224000     301.4805   -150421.15            0   -149144.24     150.9844 
  225000    299.42239   -150412.42            0   -149144.22    170.15563 
  226000    298.53043   -150408.65            0   -149144.23    120.88563 
  227000    302.42376   -150425.15            0   -149144.25    113.57585 
  228000    299.12719   -150411.17            0   -149144.22     169.1281 
  229000    300.33652    -150416.3            0   -149144.24    136.93545 
  230000    299.65938   -150413.43            0   -149144.23    136.45253 
  231000    300.05042   -150415.09            0   -149144.23    175.48801 
  232000    300.07032   -150415.17            0   -149144.23     161.7633 
  233000    300.32458   -150416.25            0   -149144.23    189.82783 
  234000     298.9399   -150410.38            0   -149144.23    163.66664 
  235000    300.02628   -150414.99            0   -149144.24    135.17179 
  236000    302.55288    -150425.7            0   -149144.25    117.19286 
  237000    300.43283   -150416.71            0   -149144.23    133.44945 
  238000    300.85244   -150418.49            0   -149144.24    136.15507 
  239000    299.84701   -150414.22            0   -149144.23    136.45205 
  240000    301.31875   -150420.46            0   -149144.24    147.45591 
  241000    299.72746   -150413.71            0   -149144.23    162.54583 
  242000    299.64868   -150413.38            0   -149144.23     173.2874 
  243000    300.06643   -150415.16            0   -149144.24    139.14553 
  244000    301.21122   -150420.01            0   -149144.24    135.75948 
  245000    299.23294   -150411.62            0   -149144.23    166.18098 
  246000      300.136   -150415.45            0   -149144.24    161.53643 
  247000    300.39121   -150416.53            0   -149144.23    167.60057 
  248000    298.60411   -150408.95            0   -149144.23    126.93315 
  249000    299.47992   -150412.67            0   -149144.23    121.62556 
  250000    300.58677   -150417.36            0   -149144.24    112.15785 
  251000    299.01035   -150410.67            0   -149144.22    144.97901 
  252000    299.34284   -150412.08            0   -149144.23    152.41898 
  253000    298.85919   -150410.03            0   -149144.22    151.41327 
  254000    300.51688   -150417.07            0   -149144.24    123.40266 
  255000    298.57028   -150408.81            0   -149144.22     134.1456 
  256000    299.30476   -150411.92            0   -149144.23    131.06965 
  257000    299.19515   -150411.45            0   -149144.22    158.23289 
  258000    299.52953   -150412.88            0   -149144.23    107.44124 
  259000    298.68401   -150409.28            0   -149144.22     172.8434 
  260000    297.99413   -150406.37            0   -149144.22    117.41366 
  261000    299.30451   -150411.92            0   -149144.23    154.85479 
  262000    301.75681   -150422.32            0   -149144.24    158.35969 
  263000    300.47055   -150416.87            0   -149144.24    131.37666 
  264000    299.24412   -150411.67            0   -149144.23    145.10809 
  265000    301.87232   -150422.81            0   -149144.24    165.54804 
  266000    299.92778   -150414.57            0   -149144.23    129.46244 
  267000    301.17803   -150419.87            0   -149144.24     165.5088 
  268000    300.75777   -150418.09            0   -149144.24    148.83073 
  269000      299.252   -150411.69            0   -149144.22    145.07025 
  270000     299.4772   -150412.65            0   -149144.22    142.99497 
  271000    301.25682    -150420.2            0   -149144.24    102.48215 
  272000    299.22174   -150411.56            0   -149144.22    149.45557 
  273000    300.00615   -150414.89            0   -149144.23    126.16079 
  274000      299.454   -150412.55            0   -149144.22    133.53969 
  275000    300.20198   -150415.73            0   -149144.23    142.04115 
  276000    300.48043   -150416.91            0   -149144.23    159.55539 
  277000    298.38861   -150408.03            0   -149144.22    135.73096 
  278000     300.9451   -150418.88            0   -149144.24    99.909002 
  279000    299.19352   -150411.45            0   -149144.22    141.69796 
  280000    300.09296   -150415.27            0   -149144.23    136.20408 
  281000    299.36998    -150412.2            0   -149144.23    113.57769 
  282000    299.18259   -150411.41            0   -149144.23    120.26858 
  283000    300.66265   -150417.68            0   -149144.24    136.54696 
  284000    299.76424   -150413.86            0   -149144.22    145.43286 
  285000    297.97775    -150406.3            0   -149144.22    134.98094 
  286000    300.12267   -150415.39            0   -149144.23    129.30439 
  287000    298.92792   -150410.33            0   -149144.23     131.2562 
  288000    299.51967   -150412.84            0   -149144.23    112.49404 
  289000    298.74237   -150409.54            0   -149144.22     137.2304 
  290000    301.89949   -150422.93            0   -149144.24    105.78372 
  291000    299.02183   -150410.73            0   -149144.23    113.87747 
  292000    298.42866    -150408.2            0   -149144.22     129.6886 
  293000    299.95447   -150414.68            0   -149144.24    109.20098 
  294000    300.76772   -150418.13            0   -149144.24    100.77245 
  295000     299.5932   -150413.15            0   -149144.23    107.04664 
  296000    300.18168   -150415.63            0   -149144.22    158.20198 
  297000    299.89075   -150414.41            0   -149144.23    113.97861 
  298000    300.36879   -150416.43            0   -149144.23    138.84751 
  299000     300.5094   -150417.03            0   -149144.23    119.00646 
  300000    300.14112   -150415.47            0   -149144.24    137.06506 
  301000    299.13559    -150411.2            0   -149144.22    132.32813 
  302000    299.49576   -150412.73            0   -149144.22    136.45106 
  303000     299.6416   -150413.36            0   -149144.23    113.90821 
  304000     299.5623   -150413.01            0   -149144.23    107.50688 
  305000    300.69231    -150417.8            0   -149144.23    107.82849 
  306000     300.0087   -150414.91            0   -149144.24    98.376528 
  307000     299.2194   -150411.56            0   -149144.23    99.701713 
  308000    300.69183    -150417.8            0   -149144.23    117.54801 
  309000    301.06265   -150419.37            0   -149144.23    109.89819 
  310000    299.58005   -150413.09            0   -149144.23    124.03109 
  311000    300.81781   -150418.34            0   -149144.23    110.04384 
  312000    302.44026   -150425.22            0   -149144.24    148.64518 
  313000    297.21313   -150403.05            0   -149144.21    131.06601 
  314000    297.85304   -150405.76            0   -149144.21    146.56235 
  315000    298.77274   -150409.67            0   -149144.23    144.62287 
  316000    300.44349   -150416.75            0   -149144.23    132.35325 
  317000    298.97015    -150410.5            0   -149144.22    143.67367 
  318000    298.95613   -150410.44            0   -149144.22    142.65123 
  319000    300.55454   -150417.22            0   -149144.23    120.55288 
  320000    299.80345   -150414.04            0   -149144.23    108.60387 
  321000     300.1814   -150415.64            0   -149144.23    116.12385 
  322000    299.43307   -150412.47            0   -149144.23    141.92791 
  323000    300.41502   -150416.63            0   -149144.23    109.21209 
  324000    300.03842   -150415.03            0   -149144.23    109.91266 
  325000    300.42802   -150416.68            0   -149144.23    99.938964 
  326000    300.51424   -150417.05            0   -149144.23    134.21925 
  327000     299.3833   -150412.26            0   -149144.23    127.91414 
  328000     299.8584   -150414.27            0   -149144.23    100.18456 
  329000    298.74448   -150409.55            0   -149144.22    127.49835 
  330000     299.9086   -150414.48            0   -149144.23    85.879211 
  331000    299.62027   -150413.26            0   -149144.22    120.62362 
  332000    300.18618   -150415.66            0   -149144.23    117.85108 
  333000    299.98462   -150414.81            0   -149144.23    107.41667 
  334000    300.29987   -150416.14            0   -149144.23    139.46878 
  335000    299.36974    -150412.2            0   -149144.23    137.29996 
  336000    300.64477    -150417.6            0   -149144.23    120.76036 
  337000    299.49213   -150412.71            0   -149144.23    145.35743 
  338000    301.16245   -150419.81            0   -149144.25    121.87597 
  339000    299.01144   -150410.68            0   -149144.22    150.72144 
  340000    299.91414   -150414.51            0   -149144.23    104.33924 
  341000     299.5525   -150412.97            0   -149144.22    143.39883 
  342000    300.61975   -150417.49            0   -149144.23    138.18545 
  343000    298.00633   -150406.42            0   -149144.22    158.18264 
  344000    300.61445   -150417.47            0   -149144.23    163.26673 
  345000     298.7831   -150409.71            0   -149144.22    122.39639 
  346000    298.86136   -150410.05            0   -149144.23    159.06517 
  347000    300.27829   -150416.06            0   -149144.24     141.6973 
  348000     298.9744   -150410.52            0   -149144.22    170.07194 
  349000     299.0159    -150410.7            0   -149144.23    128.28001 
  350000    300.28028   -150416.06            0   -149144.23    143.36518 
  351000    298.11333   -150406.87            0   -149144.22    151.62725 
  352000    299.53525   -150412.91            0   -149144.23    118.14564 
  353000    300.51466   -150417.05            0   -149144.23    178.67352 
  354000    300.18437   -150415.65            0   -149144.23     164.0138 
  355000    300.27328   -150416.03            0   -149144.23    160.71254 
  356000    298.96134   -150410.47            0   -149144.23    125.71793 
  357000    299.98175    -150414.8            0   -149144.24    128.55756 
  358000    298.85281      -150410            0   -149144.22    156.72611 
  359000    299.42224   -150412.42            0   -149144.23    151.67816 
  360000    300.99863   -150419.11            0   -149144.24    139.02382 
  361000    298.82394   -150409.89            0   -149144.23     152.7592 
  362000    301.31444   -150420.44            0   -149144.23    165.54665 
  363000    300.61329   -150417.47            0   -149144.23    151.87659 
  364000    298.39991   -150408.09            0   -149144.23    145.69746 
  365000     300.3098   -150416.18            0   -149144.23    126.19862 
  366000    300.63878   -150417.58            0   -149144.23    165.54692 
  367000    300.20581   -150415.74            0   -149144.23    153.87968 
  368000     299.2663   -150411.76            0   -149144.23    160.36531 
  369000    301.73736   -150422.24            0   -149144.24    161.19738 
  370000    300.08042   -150415.21            0   -149144.23    160.71761 
  371000    298.05256   -150406.62            0   -149144.22    164.92667 
  372000    297.77018   -150405.41            0   -149144.21    179.93517 
  373000    300.40129   -150416.58            0   -149144.24    111.60155 
  374000    300.59323   -150417.39            0   -149144.24    134.54643 
  375000    299.04972   -150410.84            0   -149144.23    140.80985 
  376000    299.16825   -150411.34            0   -149144.23    135.23191 
  377000      300.376   -150416.47            0   -149144.24    125.44645 
  378000    298.84583   -150409.98            0   -149144.23    137.26381 
  379000    300.09205   -150415.26            0   -149144.23    150.50838 
  380000    299.97895   -150414.77            0   -149144.22    112.13812 
  381000    299.07535   -150410.95            0   -149144.23    111.77178 
  382000    301.11178   -150419.59            0   -149144.24    105.38179 
  383000    299.21785   -150411.56            0   -149144.23    132.55707 
  384000    299.92218   -150414.54            0   -149144.23    142.73983 
  385000    299.31007   -150411.94            0   -149144.23    143.41711 
  386000    300.80619    -150418.3            0   -149144.24    125.47151 
  387000    300.80195   -150418.27            0   -149144.24    133.90872 
  388000    301.38456   -150420.74            0   -149144.24     145.5248 
  389000    299.46882   -150412.62            0   -149144.23    115.99906 
  390000    300.11526   -150415.35            0   -149144.23    137.43281 
  391000     299.1183   -150411.13            0   -149144.23    124.41826 
  392000    299.68732   -150413.54            0   -149144.23    133.75062 
  393000    300.08515   -150415.23            0   -149144.23    142.80284 
  394000    300.81528   -150418.33            0   -149144.24    127.76875 
  395000    299.21627   -150411.55            0   -149144.23    134.66026 
  396000    300.70517   -150417.86            0   -149144.24     87.32683 
  397000    299.29649   -150411.89            0   -149144.23    125.69664 
  398000    300.76038   -150418.09            0   -149144.23    134.88856 
  399000    299.01852   -150410.71            0   -149144.23    112.46945 
  400000    299.82522   -150414.13            0   -149144.23    128.51971 
  401000    300.07631   -150415.19            0   -149144.23    132.69285 
  402000    298.56427   -150408.78            0   -149144.22    140.50602 
  403000    298.88115   -150410.12            0   -149144.22    122.41354 
  404000    297.84989   -150405.75            0   -149144.22    117.28764 
  405000    299.78662   -150413.97            0   -149144.23     158.5872 
  406000    298.17478   -150407.13            0   -149144.22    123.82143 
  407000    298.63872   -150409.09            0   -149144.22    152.69954 
  408000    299.57528   -150413.07            0   -149144.23    158.81868 
  409000     298.7828   -150409.71            0   -149144.22    159.38363 
  410000    300.45701   -150416.81            0   -149144.23    153.71609 
  411000    300.64187   -150417.61            0   -149144.25    94.047616 
  412000    300.35913   -150416.39            0   -149144.23    152.44875 
  413000    299.23561   -150411.63            0   -149144.23    127.15514 
  414000    299.20644    -150411.5            0   -149144.22    138.51339 
  415000    299.07545   -150410.95            0   -149144.22    142.88766 
  416000    299.18933   -150411.43            0   -149144.22    143.41275 
  417000    299.69441   -150413.57            0   -149144.23    108.53313 
  418000    298.69778   -150409.34            0   -149144.22    172.08883 
  419000    300.61646   -150417.49            0   -149144.23    152.34557 
  420000    300.56791   -150417.28            0   -149144.24    108.62987 
  421000    299.77372   -150413.91            0   -149144.23    159.30654 
  422000    300.54045   -150417.17            0   -149144.24    98.806502 
  423000    300.11023   -150415.35            0   -149144.24     92.73087 
  424000    299.68292   -150413.53            0   -149144.23    147.08683 
  425000    299.59064   -150413.14            0   -149144.23    124.95562 
  426000     300.9677   -150418.97            0   -149144.23    171.41889 
  427000      299.382   -150412.25            0   -149144.23    136.70529 
  428000    297.06894   -150402.45            0   -149144.22    143.32969 
  429000    298.44596   -150408.28            0   -149144.22    131.56152 
  430000    298.61573      -150409            0   -149144.22    164.66778 
  431000    301.40997   -150420.85            0   -149144.23     141.0497 
  432000    299.46114   -150412.59            0   -149144.23    146.89979 
  433000    298.72915   -150409.48            0   -149144.23     138.2755 
  434000    299.42315   -150412.42            0   -149144.22    153.06626 
  435000    300.31131   -150416.19            0   -149144.23    143.50403 
  436000    299.98931   -150414.83            0   -149144.23    167.40043 
  437000    301.62601   -150421.77            0   -149144.24    171.19437 
  438000    300.29496   -150416.12            0   -149144.23    155.88903 
  439000    299.17192   -150411.36            0   -149144.22    158.01452 
  440000    298.98985   -150410.58            0   -149144.22     149.3362 
  441000    298.39594   -150408.07            0   -149144.23    146.45384 
  442000     299.7284   -150413.72            0   -149144.23    143.25584 
  443000    300.47781   -150416.91            0   -149144.24      111.712 
  444000    298.70313   -150409.37            0   -149144.22    180.39036 
  445000    302.35768   -150424.87            0   -149144.24    123.35693 
  446000      297.056   -150402.38            0   -149144.21    181.46141 
  447000    300.04376   -150415.06            0   -149144.23    158.60154 
  448000    299.12016   -150411.14            0   -149144.22    148.12766 
  449000    299.66881   -150413.47            0   -149144.23    141.02483 
  450000    300.82231   -150418.36            0   -149144.24    132.76498 
  451000    299.73447   -150413.75            0   -149144.23    140.62294 
  452000    300.88448   -150418.63            0   -149144.24    124.38912 
  453000    301.29968   -150420.38            0   -149144.23    152.83265 
  454000    299.31068   -150411.94            0   -149144.22    157.03878 
  455000    299.92218   -150414.54            0   -149144.23    121.37023 
  456000    299.49416   -150412.73            0   -149144.23    152.86655 
  457000    299.35676   -150412.14            0   -149144.23    176.86198 
  458000    299.72778   -150413.72            0   -149144.24     123.5341 
  459000    299.75359   -150413.83            0   -149144.23     168.1473 
  460000    299.21574   -150411.54            0   -149144.22    170.44445 
  461000    300.49263   -150416.96            0   -149144.23      172.064 
  462000    299.97393   -150414.76            0   -149144.23    157.96894 
  463000    299.55719   -150412.99            0   -149144.23    126.27171 
  464000    299.67939   -150413.51            0   -149144.23    126.86067 
  465000     301.1988   -150419.96            0   -149144.24    126.33571 
  466000    300.45365   -150416.79            0   -149144.23    133.50414 
  467000     300.5026      -150417            0   -149144.23    153.93106 
  468000    297.47566   -150404.16            0   -149144.21    140.20029 
  469000    299.11217    -150411.1            0   -149144.22    136.67184 
  470000    299.52246   -150412.85            0   -149144.23    135.83903 
  471000    299.77394   -150413.91            0   -149144.23    148.12933 
  472000     298.8161   -150409.85            0   -149144.23    143.12427 
  473000    300.52214   -150417.09            0   -149144.24    94.739727 
  474000    299.36681   -150412.19            0   -149144.24    133.00445 
  475000    299.69356   -150413.57            0   -149144.22     161.4343 
  476000    300.58393   -150417.35            0   -149144.23     129.3001 
  477000     300.6375   -150417.58            0   -149144.24    141.81379 
  478000     299.7609   -150413.86            0   -149144.23     127.2562 
  479000    299.07516   -150410.95            0   -149144.23    155.21607 
  480000    298.35087   -150407.89            0   -149144.23    132.09878 
  481000    301.73739   -150422.24            0   -149144.24    136.40105 
  482000    299.24561   -150411.67            0   -149144.23    145.15637 
  483000    300.15261   -150415.52            0   -149144.23    143.06619 
  484000    301.13569   -150419.69            0   -149144.24    131.93713 
  485000    299.75583   -150413.83            0   -149144.23    104.59922 
  486000    299.50557   -150412.77            0   -149144.23    127.67782 
  487000      298.408   -150408.12            0   -149144.22    121.26207 
  488000    299.85211   -150414.24            0   -149144.23    151.43649 
  489000    298.94555    -150410.4            0   -149144.23    119.18812 
  490000    300.34528   -150416.34            0   -149144.24    96.981441 
  491000    298.41875   -150408.17            0   -149144.22    113.98764 
  492000    299.00153   -150410.64            0   -149144.22    107.57325 
  493000    299.59573   -150413.16            0   -149144.23     96.74953 
  494000     300.8866   -150418.63            0   -149144.24    85.270353 
  495000     300.8064   -150418.29            0   -149144.23     123.3328 
  496000    301.29713   -150420.36            0   -149144.23    128.50517 
  497000    298.24298   -150407.42            0   -149144.22    134.70649 
  498000    298.62069   -150409.02            0   -149144.22    126.61078 
  499000    298.03898   -150406.55            0   -149144.21    132.37064 
  500000    298.38651   -150408.03            0   -149144.23    106.11859 
  501000     300.0968   -150415.29            0   -149144.24    82.853437 
  502000    299.84324   -150414.21            0   -149144.23    124.46901 
  503000    299.59898   -150413.17            0   -149144.23    89.886894 
  504000     299.8343   -150414.17            0   -149144.23    96.348097 
  505000    299.10294   -150411.07            0   -149144.23    106.13377 
  506000    298.25827   -150407.48            0   -149144.22    135.46041 
  507000    300.27967   -150416.06            0   -149144.23    86.868552 
  508000    300.57103   -150417.29            0   -149144.23    108.64672 
  509000    301.35222   -150420.61            0   -149144.25      100.839 
  510000    299.69963   -150413.59            0   -149144.23    103.78703 
  511000    298.04467   -150406.58            0   -149144.22    132.79798 
  512000    300.58902   -150417.36            0   -149144.23    148.16746 
  513000    300.83206    -150418.4            0   -149144.23    138.66242 
  514000    299.44027   -150412.49            0   -149144.22     148.3788 
  515000    300.39743   -150416.56            0   -149144.23    115.13463 
  516000     298.7004   -150409.36            0   -149144.22    115.94735 
  517000    301.32756    -150420.5            0   -149144.24    99.133824 
  518000    301.64137   -150421.83            0   -149144.24    119.04802 
  519000    298.26792   -150407.52            0   -149144.22    144.48089 
  520000    298.64219   -150409.11            0   -149144.22    124.34714 
  521000    299.72113   -150413.69            0   -149144.23    96.971492 
  522000    299.83498   -150414.16            0   -149144.22    127.28388 
  523000    300.78226   -150418.19            0   -149144.24     102.1574 
  524000     299.9916   -150414.83            0   -149144.22    130.13352 
  525000    299.14319   -150411.24            0   -149144.23     120.3597 
  526000    298.91879   -150410.28            0   -149144.22    123.39445 
  527000    300.89759   -150418.67            0   -149144.23    131.32387 
  528000    297.65799   -150404.94            0   -149144.22    107.26138 
  529000    297.27282   -150403.31            0   -149144.22    119.37566 
  530000    299.36442   -150412.18            0   -149144.23     123.1434 
  531000    299.61854   -150413.25            0   -149144.22     119.8006 
  532000    299.93594    -150414.6            0   -149144.23    127.67588 
  533000    300.98013   -150419.03            0   -149144.24    87.628992 
  534000    299.75038   -150413.81            0   -149144.23    130.76391 
  535000    300.13584   -150415.45            0   -149144.24    113.40846 
  536000    301.83183   -150422.64            0   -149144.24    135.86099 
  537000    299.90376   -150414.46            0   -149144.23    151.19835 
  538000    299.85051   -150414.23            0   -149144.23    167.54382 
  539000    299.92428   -150414.55            0   -149144.23     145.8554 
  540000    299.14439   -150411.25            0   -149144.23    142.78196 
  541000    300.11742   -150415.36            0   -149144.23    159.43667 
  542000     300.9235   -150418.78            0   -149144.23    149.66383 
  543000    300.26586      -150416            0   -149144.23    162.40531 
  544000     299.6953   -150413.59            0   -149144.24    136.75731 
  545000    298.53904   -150408.68            0   -149144.23    146.50655 
  546000    298.71903   -150409.44            0   -149144.23    145.25224 
  547000    298.28168   -150407.58            0   -149144.22    165.41564 
  548000    301.05151   -150419.33            0   -149144.24      150.836 
  549000    300.96342   -150418.96            0   -149144.23    167.26839 
  550000    300.08163   -150415.21            0   -149144.23    145.32276 
  551000    299.11664   -150411.12            0   -149144.23    153.19206 
  552000    300.95877   -150418.94            0   -149144.24    150.02041 
  553000    298.92072   -150410.29            0   -149144.22    173.89282 
  554000    302.02322   -150423.45            0   -149144.24    144.14621 
  555000    301.32229   -150420.49            0   -149144.25    126.38665 
  556000    299.80997   -150414.07            0   -149144.23    145.74303 
  557000    300.04037   -150415.05            0   -149144.23    150.14305 
  558000    297.56389   -150404.54            0   -149144.22    179.25313 
  559000    300.15543   -150415.53            0   -149144.23    148.63791 
  560000    300.10952   -150415.34            0   -149144.23    172.19189 
  561000    298.33447   -150407.81            0   -149144.22     198.9097 
  562000    298.94702   -150410.41            0   -149144.22    197.45061 
  563000    299.71523   -150413.67            0   -149144.23    169.28785 
  564000    298.58447   -150408.87            0   -149144.22    178.98182 
  565000    299.98778   -150414.82            0   -149144.23    174.39948 
  566000    298.65013   -150409.15            0   -149144.22    193.70686 
  567000    299.49272   -150412.72            0   -149144.23    173.42666 
  568000    299.51766   -150412.83            0   -149144.24    151.76579 
  569000    299.24824   -150411.68            0   -149144.23    186.35878 
  570000    298.11106   -150406.86            0   -149144.22    207.91403 
  571000     299.1757   -150411.37            0   -149144.22    169.20127 
  572000     299.7671   -150413.88            0   -149144.23    155.73059 
  573000    297.74523   -150405.31            0   -149144.22     174.7459 
  574000    299.43328   -150412.47            0   -149144.23    155.34844 
  575000    298.91772   -150410.28            0   -149144.23    167.47367 
  576000    300.90384   -150418.71            0   -149144.24    121.68271 
  577000    301.93572   -150423.08            0   -149144.24    161.21368 
  578000     299.0533   -150410.86            0   -149144.23     154.1314 
  579000     300.0736   -150415.18            0   -149144.23    173.72206 
  580000    298.50874   -150408.55            0   -149144.23    152.60775 
  581000    302.12793   -150423.89            0   -149144.24    145.44889 
  582000    300.75087   -150418.05            0   -149144.23    157.84117 
  583000    298.92891   -150410.33            0   -149144.23     156.1615 
  584000    299.51457   -150412.81            0   -149144.23    157.85669 
  585000    298.26709   -150407.52            0   -149144.22     149.8228 
  586000    298.32869   -150407.78            0   -149144.22    164.32476 
  587000    299.60353    -150413.2            0   -149144.24    119.60438 
  588000    299.89873   -150414.44            0   -149144.23    136.61526 
  589000    299.06483    -150410.9            0   -149144.23    167.81203 
  590000    299.24821   -150411.69            0   -149144.23    142.79231 
  591000    297.12071   -150402.67            0   -149144.22    127.19668 
  592000    301.50437   -150421.26            0   -149144.24    150.28321 
  593000    298.73552   -150409.51            0   -149144.22    151.78196 
  594000    301.04144   -150419.29            0   -149144.24    153.88733 
  595000    300.88761   -150418.63            0   -149144.23    183.02142 
  596000    300.02424   -150414.98            0   -149144.24    129.10058 
  597000    299.01181   -150410.69            0   -149144.23    133.75314 
  598000    299.53541    -150412.9            0   -149144.23    153.81403 
  599000    300.11669   -150415.37            0   -149144.23    157.78395 
  600000    297.98252   -150406.31            0   -149144.22    164.03245 
  601000    300.04268   -150415.06            0   -149144.24    116.31025 
  602000    299.00775   -150410.67            0   -149144.23    118.89957 
  603000    300.27019   -150416.02            0   -149144.24    126.95999 
  604000    299.22227   -150411.57            0   -149144.22    143.01943 
  605000    299.26103   -150411.74            0   -149144.23    135.20781 
  606000    299.68831   -150413.55            0   -149144.23    115.37922 
  607000    300.57528   -150417.32            0   -149144.24    73.643072 
  608000    300.55574   -150417.22            0   -149144.23    120.19123 
  609000    300.92991   -150418.82            0   -149144.24    102.80668 
  610000     298.5771   -150408.84            0   -149144.22    129.11268 
  611000    299.99429   -150414.86            0   -149144.24    111.70184 
  612000    300.70855   -150417.87            0   -149144.23    130.38299 
  613000    299.45397   -150412.56            0   -149144.23    130.33169 
  614000    299.32678   -150412.02            0   -149144.23    105.90968 
  615000    300.86645   -150418.55            0   -149144.24    88.825021 
  616000    299.85451   -150414.25            0   -149144.23    130.68423 
  617000     299.8325   -150414.16            0   -149144.23    132.15885 
  618000    299.05377   -150410.86            0   -149144.23    137.77531 
  619000    298.34354   -150407.84            0   -149144.22    141.32802 
  620000    299.99369   -150414.84            0   -149144.22    133.82322 
  621000    302.64209   -150426.07            0   -149144.24      118.563 
  622000    298.42841    -150408.2            0   -149144.21    157.90463 
  623000    301.50268   -150421.25            0   -149144.24    94.037214 
  624000    299.18372   -150411.41            0   -149144.23    138.47433 
  625000    299.94119   -150414.63            0   -149144.24    81.156334 
  626000    300.27309   -150416.03            0   -149144.23    143.56941 
  627000    300.00533   -150414.89            0   -149144.23     140.4333 
  628000    300.01857   -150414.95            0   -149144.23    144.57348 
  629000     298.9464   -150410.41            0   -149144.23    130.17492 
  630000    299.74379   -150413.79            0   -149144.23    117.20092 
  631000    299.70804   -150413.64            0   -149144.23    121.16449 
  632000    301.23329   -150420.11            0   -149144.24    88.260238 
  633000    300.00639   -150414.89            0   -149144.22    136.87068 
  634000    300.71125   -150417.89            0   -149144.24    103.59723 
  635000    299.02616   -150410.74            0   -149144.23    126.24305 
  636000    299.79983   -150414.02            0   -149144.22    147.49214 
  637000    300.52263   -150417.09            0   -149144.23    134.76499 
  638000    298.98924   -150410.58            0   -149144.22    166.91894 
  639000    300.44573   -150416.76            0   -149144.23    147.65864 
  640000    300.56796   -150417.28            0   -149144.24    112.32431 
  641000    300.54101   -150417.17            0   -149144.24    133.24873 
  642000    300.39394   -150416.55            0   -149144.24    128.96294 
  643000    299.23023    -150411.6            0   -149144.22    155.57106 
  644000    298.86474   -150410.06            0   -149144.23    116.08447 
  645000    298.57032    -150408.8            0   -149144.22    151.32632 
  646000    299.51182    -150412.8            0   -149144.23    123.02496 
  647000    298.76337   -150409.62            0   -149144.22    149.23156 
  648000    300.69163   -150417.81            0   -149144.24    122.42171 
  649000    301.04799   -150419.32            0   -149144.24    81.706277 
  650000     300.4814   -150416.91            0   -149144.23    106.10434 
  651000    300.60235   -150417.43            0   -149144.24     106.2136 
  652000    301.11802   -150419.61            0   -149144.23    146.60821 
  653000    298.43423   -150408.23            0   -149144.22    138.55737 
  654000    300.54531   -150417.18            0   -149144.23    131.44698 
  655000     299.5891   -150413.13            0   -149144.23    118.20866 
  656000      298.167    -150407.1            0   -149144.23    114.21856 
  657000    299.44391   -150412.51            0   -149144.23    95.181645 
  658000      298.236   -150407.38            0   -149144.21     128.4158 
  659000    300.08592   -150415.24            0   -149144.23    80.406225 
  660000    301.28418   -150420.32            0   -149144.24    114.77189 
  661000    300.30149   -150416.14            0   -149144.22    145.85889 
  662000    299.60408   -150413.19            0   -149144.23    132.37314 
  663000    299.00824   -150410.66            0   -149144.22    142.12854 
  664000    300.90465    -150418.7            0   -149144.23    129.82772 
  665000    299.87723   -150414.35            0   -149144.23    122.91179 
  666000    297.98364   -150406.31            0   -149144.21    163.55248 
  667000    300.69316   -150417.81            0   -149144.24    92.093123 
  668000    298.84042   -150409.94            0   -149144.22    136.74357 
  669000    299.79701   -150414.01            0   -149144.23    151.94465 
  670000    300.17611   -150415.62            0   -149144.23     127.0722 
  671000    299.91151   -150414.49            0   -149144.22    157.36349 
  672000    300.20919   -150415.76            0   -149144.23    124.59155 
  673000    300.86819   -150418.56            0   -149144.24    150.62179 
  674000    298.64689   -150409.14            0   -149144.23    138.35289 
  675000    300.74899   -150418.05            0   -149144.24    128.82532 
  676000    300.56951   -150417.29            0   -149144.24    135.75488 
  677000    299.86769   -150414.31            0   -149144.23    154.23786 
  678000    299.99142   -150414.84            0   -149144.23    151.76903 
  679000     298.3607   -150407.91            0   -149144.22     149.6668 
  680000    300.58089   -150417.33            0   -149144.23    127.81238 
  681000    299.00844   -150410.66            0   -149144.22     150.6521 
  682000    301.05068   -150419.33            0   -149144.24    151.41545 
  683000     301.1469   -150419.73            0   -149144.23    149.17381 
  684000    298.73617   -150409.51            0   -149144.22    164.86788 
  685000    299.80101   -150414.03            0   -149144.23    146.35935 
  686000    299.90008   -150414.45            0   -149144.23    135.04466 
  687000    299.03968    -150410.8            0   -149144.23    146.56525 
  688000    299.70757   -150413.64            0   -149144.23     150.9888 
  689000    299.20507   -150411.51            0   -149144.23    135.81625 
  690000    300.17609   -150415.62            0   -149144.23    153.43279 
  691000    299.31849   -150411.98            0   -149144.23    147.03976 
  692000    300.19011   -150415.68            0   -149144.23     152.2918 
  693000    299.63018    -150413.3            0   -149144.23     164.3015 
  694000    299.02983   -150410.76            0   -149144.23    134.31128 
  695000    298.97625   -150410.53            0   -149144.23    167.18447 
  696000    298.74769   -150409.56            0   -149144.23    126.53386 
  697000    299.35377   -150412.13            0   -149144.23    130.61471 
  698000    300.12008   -150415.39            0   -149144.24    113.32265 
  699000     300.1205   -150415.39            0   -149144.24    105.19207 
  700000    298.29721   -150407.65            0   -149144.23    130.87068 
Loop time of 10778.3 on 12 procs for 500000 steps with 32768 atoms

Performance: 4.008 ns/day, 5.988 hours/ns, 46.390 timesteps/s
99.5% CPU use with 12 MPI tasks x no OpenMP threads

MPI task timing breakdown:
Section |  min time  |  avg time  |  max time  |%varavg| %total
---------------------------------------------------------------
Pair    | 7604.5     | 8019.9     | 8498.3     | 288.6 | 74.41
Neigh   | 0          | 0          | 0          |   0.0 |  0.00
Comm    | 2007.8     | 2486.1     | 2896.1     | 513.9 | 23.07
Output  | 126.14     | 139.05     | 151.44     |  67.6 |  1.29
Modify  | 28.637     | 33.678     | 39.668     |  67.7 |  0.31
Other   |            | 99.58      |            |       |  0.92

Nlocal:    2730.67 ave 2816 max 2688 min
Histogram: 8 0 0 0 0 0 0 0 0 4
Nghost:    3002.83 ave 3112 max 2784 min
Histogram: 4 0 0 0 0 0 0 0 0 8
Neighs:    0 ave 0 max 0 min
Histogram: 12 0 0 0 0 0 0 0 0 0
FullNghs:  76458.7 ave 78848 max 75264 min
Histogram: 8 0 0 0 0 0 0 0 0 4

Total # of neighbors = 917504
Ave neighs/atom = 28
Neighbor list builds = 0
Dangerous builds = 0
###################







Total wall time: 4:05:38
