LAMMPS data file via write_data, version 16 Mar 2018, timestep = 2100049

11200 atoms
8 atom types

-2.0882563540254631e-01 5.4524225635403077e+01 xlo xhi
-7.0174725561917184e-01 3.0997247255619307e+01 ylo yhi
-4.6900306905088479e-01 7.2730003069051634e+01 zlo zhi

Masses

1 69.723
2 14.007
3 69.723
4 14.007
5 69.723
6 14.007
7 69.723
8 14.007

Atoms # atomic

2 2 5.2171454018409287e-02 1.2221057960929968e-01 1.8055408209707984e+00 0 0 0
1 1 1.8070935851136824e-01 1.3276471985644284e-01 -1.4515742597359102e-01 0 0 0
3 3 1.9266659302514944e+00 3.1791804165156673e-02 2.3879522703243561e+00 0 0 0
5 5 3.0113476565696997e+00 1.5915874889176058e+00 -1.6810577197426058e-01 0 0 0
6 6 2.9047333608680219e+00 1.5842818088879769e+00 1.7713109880736559e+00 0 0 0
7 7 4.7047308965746559e+00 1.5869856810261289e+00 2.5205316967913656e+00 0 0 0
10 2 5.6878648798632110e+00 6.5635501177242511e-02 1.7858564167327062e+00 0 0 0
9 1 5.8799881702110861e+00 1.4142075169887672e-01 -8.3305797374078894e-02 0 0 0
11 3 7.5613138010026635e+00 -3.0192820214206283e-02 2.5812684937455130e+00 0 0 0
14 6 8.4405790982302218e+00 1.5490105362584730e+00 1.9571391002344012e+00 0 0 0
13 5 8.4533663937582197e+00 1.4809172977220855e+00 1.5795161760668929e-02 0 0 0
18 2 1.1258509902586365e+01 -1.1443436777012645e-02 1.9316834357346822e+00 0 0 0
17 1 1.1177651806755675e+01 -7.5292711725441479e-03 1.8398409919988940e-02 0 0 0
19 3 1.3148516536905982e+01 -1.0408683918098210e-02 2.5063832667539194e+00 0 0 0
82 2 1.8724435208732476e-01 3.3288267092692840e+00 1.9028202823225677e+00 0 0 0
81 1 3.1809858301670912e-01 3.2906611534257082e+00 -5.6273944036095688e-02 0 0 0
83 3 2.0434521424758096e+00 3.2362562962777188e+00 2.4469348295300115e+00 0 0 0
89 1 5.7064516172185575e+00 3.2389423491334113e+00 -2.4727085359406942e-01 0 0 0
90 2 5.6523423527894829e+00 3.2379342279207215e+00 1.8233449134908746e+00 0 0 0
91 3 7.5283985535563502e+00 3.1073600612776096e+00 2.4728101143077952e+00 0 0 0
98 2 1.1179616795497489e+01 3.0592167307647524e+00 1.7819427259120182e+00 0 0 0
97 1 1.1231446919127373e+01 3.0905719150044613e+00 -1.8678443934112199e-01 0 0 0
99 3 1.2966753234433325e+01 3.1739258123719507e+00 2.5511030937758026e+00 0 0 0
162 2 2.2535512041997691e-01 6.4331002385338909e+00 1.7871464198877314e+00 0 0 0
161 1 1.5056471515371159e-01 6.4471036671379762e+00 -1.8602898295999279e-01 0 0 0
163 3 2.0071612125690632e+00 6.5324463732617142e+00 2.3966373373044356e+00 0 0 0
87 7 4.7127825800589189e+00 4.8401941070766812e+00 2.4174977926114236e+00 0 0 0
85 5 2.9330979898588696e+00 4.7265613091976055e+00 -1.7432719891351039e-01 0 0 0
86 6 2.9554319773519442e+00 4.8877088386792087e+00 1.7677980522426242e+00 0 0 0
170 2 5.7715845941143282e+00 6.3966734167945134e+00 1.9109670219224200e+00 0 0 0
169 1 5.7651731876018282e+00 6.2737058680900519e+00 2.5711975368905172e-02 0 0 0
171 3 7.5550819692870252e+00 6.3789844347961395e+00 2.5814563197284275e+00 0 0 0
93 5 8.5695566015121365e+00 4.8410313372603415e+00 -2.4996782524486054e-02 0 0 0
94 6 8.3856011695464918e+00 4.7520403703296923e+00 1.8533496884675715e+00 0 0 0
95 7 1.0226047786138665e+01 4.6997246218119573e+00 2.5109147997041412e+00 0 0 0
177 1 1.0940284865005992e+01 6.2753446819133760e+00 -6.9196468059187041e-02 0 0 0
178 2 1.1180432624218815e+01 6.2562376357342027e+00 1.8785644038072209e+00 0 0 0
179 3 1.2960181684795947e+01 6.1844819664173434e+00 2.5024772578195416e+00 0 0 0
242 2 1.2449409954634215e-01 9.5574808595792771e+00 1.8758187824952361e+00 0 0 0
241 1 2.5330594652662536e-01 9.5978461046220485e+00 -8.1096040349374773e-02 0 0 0
243 3 1.9245874756760313e+00 9.6568271991349572e+00 2.5981274148934426e+00 0 0 0
166 6 3.0298821536497447e+00 8.0330751984786168e+00 1.9564155629399571e+00 0 0 0
165 5 3.0597420595675859e+00 7.8051008038492347e+00 1.2227141204843572e-01 0 0 0
167 7 4.9461785988924021e+00 7.9364784212588058e+00 2.7354590381761397e+00 0 0 0
250 2 5.6279573209912028e+00 9.5297037179279229e+00 1.9957634454077635e+00 0 0 0
251 3 7.4343170366883697e+00 9.2400782900167293e+00 2.6475320701353251e+00 0 0 0
249 1 5.6881907220193764e+00 9.4815107793419120e+00 6.6528431121529216e-02 0 0 0
173 5 8.4955377155059111e+00 7.8331734772119388e+00 -1.0438375278815304e-02 0 0 0
174 6 8.5962006608728370e+00 7.8386539236952153e+00 1.9374065894286483e+00 0 0 0
175 7 1.0379405172105352e+01 7.8482647081554271e+00 2.6133849327076932e+00 0 0 0
258 2 1.1237297007279327e+01 9.4762656172785871e+00 1.8883535128149900e+00 0 0 0
257 1 1.1178999559392818e+01 9.5236430634811278e+00 -9.5638794226579227e-02 0 0 0
259 3 1.3084628121391697e+01 9.4280429026509172e+00 2.5254199385734855e+00 0 0 0
4 4 2.0126696770672421e+00 3.8801753273004821e-02 4.3498970136776558e+00 0 0 0
801 1 1.2864909719093895e-01 -8.4356953632735820e-02 5.0766181633323804e+00 0 0 0
8 8 4.8017595426011423e+00 1.7296306803565467e+00 4.4476340145386342e+00 0 0 0
805 5 2.9511045743134439e+00 1.5559657056260296e+00 5.1212802495748884e+00 0 0 0
809 1 5.7462405749110612e+00 1.2362220329443080e-01 5.2082610029081904e+00 0 0 0
12 4 7.5951327525387251e+00 1.6416765755054845e-02 4.6213888955733484e+00 0 0 0
15 7 1.0356804011972949e+01 1.5230652710328618e+00 2.6094391211215613e+00 0 0 0
813 5 8.5176914696289110e+00 1.6413192566680668e+00 5.2835015407414581e+00 0 0 0
16 8 1.0364997251033643e+01 1.5949091871565826e+00 4.5465561783506674e+00 0 0 0
20 4 1.3153449479714212e+01 -6.8413444734887849e-02 4.4820540699607641e+00 0 0 0
817 1 1.1284158338256129e+01 1.9527368996977948e-02 5.1181267122909047e+00 0 0 0
881 1 1.7618976083908999e-01 3.2304102480164536e+00 5.0639341221334666e+00 0 0 0
84 4 1.9857268919908120e+00 3.0665567486764447e+00 4.3687633672996729e+00 0 0 0
889 1 5.7171295408080960e+00 3.3849902248648891e+00 5.1376184774045939e+00 0 0 0
92 4 7.5911953764422835e+00 3.1676441576546086e+00 4.4935444435631284e+00 0 0 0
897 1 1.1231628763931328e+01 3.1426655656328109e+00 5.2219823290899603e+00 0 0 0
100 4 1.2968867438430161e+01 3.2194756913307483e+00 4.4287516917838996e+00 0 0 0
961 1 3.1003989172294838e-01 6.3182139040794620e+00 5.1550376480752060e+00 0 0 0
164 4 2.0337639212677621e+00 6.3642135322216120e+00 4.3504914437876749e+00 0 0 0
88 8 4.6923814403447901e+00 4.9146427384338995e+00 4.3802771113360457e+00 0 0 0
885 5 2.8629899874001139e+00 4.7187649327562697e+00 4.9310696806934748e+00 0 0 0
969 1 5.5942957573116976e+00 6.3124586823378648e+00 5.2643266985751378e+00 0 0 0
172 4 7.4667721716211526e+00 6.3332080300669151e+00 4.5553713192395699e+00 0 0 0
893 5 8.5201297549039889e+00 4.8300709762724425e+00 5.1551083179216874e+00 0 0 0
96 8 1.0336995660863657e+01 4.6877338446783865e+00 4.5002257994920818e+00 0 0 0
977 1 1.1105589467871614e+01 6.3999174262945679e+00 4.9607690950999279e+00 0 0 0
180 4 1.3085259193412016e+01 6.3388600579313943e+00 4.3198786825378965e+00 0 0 0
1041 1 3.3087286702517632e-01 9.4369886168443262e+00 5.1976630137482038e+00 0 0 0
244 4 2.2010699303030656e+00 9.4480558731317839e+00 4.4461553643966791e+00 0 0 0
965 5 3.0094547151139532e+00 7.8230935792559793e+00 5.2512701316639765e+00 0 0 0
168 8 4.8412128288557472e+00 7.9705402332797624e+00 4.6503595027531484e+00 0 0 0
1049 1 5.4864647856699484e+00 9.5717985340450760e+00 5.2586839381395709e+00 0 0 0
252 4 7.2976023892647914e+00 9.6268856172213670e+00 4.5733330048567007e+00 0 0 0
973 5 8.3063315431580733e+00 7.9673306167249480e+00 5.0524518999269965e+00 0 0 0
176 8 1.0220982718006541e+01 8.0029131625167125e+00 4.5173904597586736e+00 0 0 0
260 4 1.3079864485156284e+01 9.4557171159675750e+00 4.4389097451887869e+00 0 0 0
1057 1 1.1121565746782052e+01 9.5609008539015274e+00 5.0827619273619833e+00 0 0 0
803 3 1.9755644569375734e+00 1.1377054035872387e-01 7.5977738808605633e+00 0 0 0
802 2 1.2168921530991324e-01 9.9615395636007589e-02 7.0043409356215234e+00 0 0 0
806 6 2.8878673744725778e+00 1.7397104588032046e+00 7.0240953863961675e+00 0 0 0
810 2 5.6436496064000226e+00 2.1257998977919640e-01 7.1668807301147108e+00 0 0 0
811 3 7.4635593847553432e+00 -2.4701841245110576e-02 7.8125732279060900e+00 0 0 0
814 6 8.4949946395726830e+00 1.5652579871690866e+00 7.2241651209047850e+00 0 0 0
815 7 1.0342212810714054e+01 1.3421337522944945e+00 7.8538152035541104e+00 0 0 0
818 2 1.1386377984930197e+01 -4.4633503913838739e-02 7.0823065003775776e+00 0 0 0
819 3 1.3162974636769770e+01 -1.0584377103697452e-01 7.7158885025620121e+00 0 0 0
882 2 1.1433500993251627e-01 3.4256524883329846e+00 6.9697517272265594e+00 0 0 0
883 3 1.9892455542156764e+00 3.3132176286226609e+00 7.6096074083562506e+00 0 0 0
807 7 4.7372656290234563e+00 1.7292623976254382e+00 7.7836253930426578e+00 0 0 0
890 2 5.6539004060296998e+00 3.3417935292152161e+00 7.1048002658507095e+00 0 0 0
891 3 7.5233427635554708e+00 3.2157030470643351e+00 7.7830837909784005e+00 0 0 0
898 2 1.1201193868102020e+01 3.0532005330136740e+00 7.2095757426187399e+00 0 0 0
899 3 1.3099480995745447e+01 2.9320093995671326e+00 7.7347311486296464e+00 0 0 0
963 3 2.1074860110115439e+00 6.4412142407457340e+00 7.7082412019932152e+00 0 0 0
962 2 3.3701856459494312e-01 6.4433712676245927e+00 7.1052931292387296e+00 0 0 0
886 6 2.9466110275561697e+00 4.7753674607186367e+00 6.8893618884675307e+00 0 0 0
887 7 4.7517588230727004e+00 4.8772313870449651e+00 7.6847138556892975e+00 0 0 0
970 2 5.7623648214857424e+00 6.4627163410651685e+00 7.1549659454302015e+00 0 0 0
971 3 7.5181519858594061e+00 6.3898175940745796e+00 7.7427681688309304e+00 0 0 0
894 6 8.5407234023651846e+00 4.7610499667003543e+00 7.1693872081940926e+00 0 0 0
895 7 1.0481035845770203e+01 4.8088785181269227e+00 7.7205214797754529e+00 0 0 0
979 3 1.2930574990341878e+01 6.3038363396228023e+00 7.6729896599892005e+00 0 0 0
978 2 1.1160676979267000e+01 6.4355433988093278e+00 6.9606005873684573e+00 0 0 0
1042 2 2.2130005616982631e-01 9.5131062575757905e+00 7.1105793255498240e+00 0 0 0
1043 3 2.1377813647557056e+00 9.6538008846317869e+00 7.7834794189833731e+00 0 0 0
966 6 2.9505344709227521e+00 8.0540631912832517e+00 7.1602597380997191e+00 0 0 0
967 7 4.8347414930632633e+00 7.9613524368723381e+00 7.7934274316302519e+00 0 0 0
1050 2 5.5865879179046960e+00 9.6900271213974278e+00 7.2090003509452014e+00 0 0 0
1051 3 7.4610261722565445e+00 9.6153603961964791e+00 7.7332682828724941e+00 0 0 0
974 6 8.4038360473978209e+00 7.9478338325894873e+00 6.9913971742135335e+00 0 0 0
975 7 1.0224337760588551e+01 7.9615780909954479e+00 7.8222120134975262e+00 0 0 0
1059 3 1.2899626743298171e+01 9.5938003229937898e+00 7.8179864393805980e+00 0 0 0
1058 2 1.1083015631301171e+01 9.5090167449218050e+00 7.0863573347448918e+00 0 0 0
1601 1 3.2107851688236599e-01 7.7010538491284350e-02 1.0154115221624938e+01 0 0 0
804 4 2.0668789646081955e+00 1.3899346448220343e-01 9.5245789986945368e+00 0 0 0
808 8 4.7393465698269166e+00 1.8296560836807745e+00 9.7262112733706019e+00 0 0 0
1605 5 2.9216689383225245e+00 1.7474994710993590e+00 1.0323641113505817e+01 0 0 0
812 4 7.5750429676221982e+00 9.6626579749333183e-02 9.7415677507079383e+00 0 0 0
1609 1 5.7804047096190461e+00 2.2092081678401995e-01 1.0482736298835613e+01 0 0 0
1613 5 8.4397752018991543e+00 1.7433698872347632e+00 1.0306282057123781e+01 0 0 0
816 8 1.0321066839809271e+01 1.7432739576197576e+00 9.7928992855461559e+00 0 0 0
820 4 1.3163745114825268e+01 -2.9069340512018090e-02 9.6412750855602276e+00 0 0 0
1617 1 1.1302089371792125e+01 1.0849116006540642e-01 1.0205163513851057e+01 0 0 0
1681 1 1.7549858224432877e-01 3.2055687508667505e+00 1.0300512950012552e+01 0 0 0
884 4 1.9496428803220562e+00 3.3218032839891141e+00 9.5336948172801872e+00 0 0 0
1689 1 5.7609359959697164e+00 3.3955870997332718e+00 1.0262295033612885e+01 0 0 0
892 4 7.6270910807220718e+00 3.4993349915679439e+00 9.6508457605640849e+00 0 0 0
1697 1 1.1254478685187481e+01 3.2920102540607181e+00 1.0316935755576978e+01 0 0 0
900 4 1.2982934239663638e+01 3.0483272033040714e+00 9.6304173119322982e+00 0 0 0
1761 1 2.5706335173875527e-01 6.3841060331248318e+00 1.0341585686707440e+01 0 0 0
964 4 2.0530792935592856e+00 6.5158371760318499e+00 9.6872322585341095e+00 0 0 0
1685 5 2.9287359606044272e+00 4.8684852701959596e+00 1.0321415694858167e+01 0 0 0
888 8 4.6980221577113586e+00 4.8535976511486085e+00 9.6136941330339916e+00 0 0 0
1769 1 5.7996291168367256e+00 6.4208640484529464e+00 1.0442782622021090e+01 0 0 0
972 4 7.4842040882750895e+00 6.5142841624278729e+00 9.6266810096397393e+00 0 0 0
1693 5 8.6532326085677447e+00 5.1097366940676645e+00 1.0401473638469882e+01 0 0 0
896 8 1.0366170505882584e+01 4.8822659664253001e+00 9.6877844740824379e+00 0 0 0
1777 1 1.1140131949403898e+01 6.5581843083097677e+00 1.0353459405959272e+01 0 0 0
980 4 1.3012501099236749e+01 6.4760114690497410e+00 9.5981334859976624e+00 0 0 0
1044 4 2.1212102143551710e+00 9.6880579313013797e+00 9.7666631079131498e+00 0 0 0
1841 1 1.5923481579403187e-01 9.5038460143768528e+00 1.0448064321587820e+01 0 0 0
968 8 4.7997398444868464e+00 8.0101455415547562e+00 9.7545407012148839e+00 0 0 0
1765 5 3.0413246720785740e+00 8.1221490180002558e+00 1.0467908549987891e+01 0 0 0
1052 4 7.5068752948383741e+00 9.6627270178352589e+00 9.7333182596356131e+00 0 0 0
1849 1 5.6648778067991712e+00 9.6260294328427207e+00 1.0297498788166331e+01 0 0 0
1773 5 8.3739732144664263e+00 8.1214632947596446e+00 1.0371349086516268e+01 0 0 0
976 8 1.0150265534550186e+01 8.0560178419515420e+00 9.7354773148835676e+00 0 0 0
1060 4 1.3139085842883247e+01 9.6836432678284776e+00 9.8199826780528401e+00 0 0 0
1857 1 1.1217457594190705e+01 9.6006338086531553e+00 1.0293582910271153e+01 0 0 0
1603 3 2.0735741538169630e+00 1.6449163429247501e-01 1.2858517864768992e+01 0 0 0
1602 2 3.1289845210612949e-01 1.1907382708436762e-01 1.2070322409124095e+01 0 0 0
1606 6 2.8933139785866815e+00 1.6815889994071613e+00 1.2170865708301600e+01 0 0 0
1607 7 4.6112507882450515e+00 1.8206775412284590e+00 1.2968056423552881e+01 0 0 0
1610 2 5.5611108818930637e+00 2.5169950552339521e-01 1.2336566522891356e+01 0 0 0
1611 3 7.4427892239209408e+00 1.6276343782847549e-01 1.2905446136246047e+01 0 0 0
1614 6 8.5445754896186319e+00 1.6181084899867066e+00 1.2226210973261233e+01 0 0 0
1615 7 1.0343021778403417e+01 1.6831153165735557e+00 1.2935095079329447e+01 0 0 0
1618 2 1.1260428228439046e+01 1.9165037073529351e-01 1.2211736400284636e+01 0 0 0
1619 3 1.3112168667256615e+01 7.0118985440493206e-02 1.2904890317061357e+01 0 0 0
1682 2 2.5438140382073343e-01 3.1538379529932064e+00 1.2321613340094046e+01 0 0 0
1683 3 2.0939360321429166e+00 3.2224422560777541e+00 1.2908338483730466e+01 0 0 0
1690 2 5.7783581956545937e+00 3.1918255839667578e+00 1.2194453147764023e+01 0 0 0
1691 3 7.6116737610351137e+00 3.1703955092918705e+00 1.2859543249387707e+01 0 0 0
1698 2 1.1244829761563841e+01 3.3675600958133245e+00 1.2239730185244841e+01 0 0 0
1699 3 1.3123902803690815e+01 3.2975072019141414e+00 1.2853541719023767e+01 0 0 0
1763 3 2.0680248799117602e+00 6.4159393885983924e+00 1.3026932497488733e+01 0 0 0
1762 2 2.9698380336672603e-01 6.3391779987299079e+00 1.2404404041981605e+01 0 0 0
1686 6 2.9337115154058511e+00 4.9461040142498138e+00 1.2243156685686550e+01 0 0 0
1687 7 4.7901928738833162e+00 4.8048704456373290e+00 1.2887824822128222e+01 0 0 0
1770 2 5.7226712190381592e+00 6.4216137898146330e+00 1.2361164654800916e+01 0 0 0
1771 3 7.6584699498091044e+00 6.4738809912234210e+00 1.3066314885961617e+01 0 0 0
1695 7 1.0244976269313851e+01 4.7708318178378795e+00 1.2989470216199281e+01 0 0 0
1694 6 8.4730668521885892e+00 4.8456297165837308e+00 1.2272921321822203e+01 0 0 0
1696 8 1.0223995120880392e+01 4.7280977202700436e+00 1.4888966561871813e+01 0 0 0
1778 2 1.1161636388370594e+01 6.3457987702937766e+00 1.2237453870975987e+01 0 0 0
1779 3 1.3048097446831857e+01 6.5399699512944620e+00 1.2850339864836281e+01 0 0 0
1842 2 1.3980235562790180e-01 9.7880007548371211e+00 1.2330257732137030e+01 0 0 0
1843 3 1.9313464374192302e+00 9.6675137821614605e+00 1.2968801556763605e+01 0 0 0
1766 6 2.8720678744189190e+00 8.0291512934597478e+00 1.2386327527312314e+01 0 0 0
1767 7 4.7350694240925479e+00 7.9781941734684310e+00 1.2930253155189632e+01 0 0 0
1850 2 5.6991695363805901e+00 9.5748402890472573e+00 1.2267655961817448e+01 0 0 0
1851 3 7.5402365435535295e+00 9.6914618185978245e+00 1.3033046055419128e+01 0 0 0
1774 6 8.4563596080975767e+00 8.1263949598761265e+00 1.2360906208265698e+01 0 0 0
1775 7 1.0316801476986670e+01 7.9810060837528525e+00 1.2884887840603113e+01 0 0 0
1776 8 1.0264866340215528e+01 8.1041332249444160e+00 1.4934559672864799e+01 0 0 0
1859 3 1.3121046839362037e+01 9.5704778860841166e+00 1.2920670286317796e+01 0 0 0
1858 2 1.1240704545186810e+01 9.6406503047238505e+00 1.2243289644109391e+01 0 0 0
1604 4 2.1297206055271833e+00 1.4241792505511816e-01 1.4809255678110414e+01 0 0 0
2401 1 2.1538380309648422e-01 2.3492787842230450e-02 1.5526037890837705e+01 0 0 0
2402 2 2.6846651025323165e-01 4.6821915095939248e-02 1.7535138390887564e+01 0 0 0
1608 8 4.7609499524720604e+00 1.8011520556058374e+00 1.4953797735438570e+01 0 0 0
2405 5 2.8815561131917735e+00 1.7693963364301606e+00 1.5559442928585455e+01 0 0 0
2406 6 2.9649353215365046e+00 1.7284951676962705e+00 1.7557309235466963e+01 0 0 0
1612 4 7.3580538216416853e+00 2.2540163691305782e-02 1.4860061348760855e+01 0 0 0
2409 1 5.5011700435759838e+00 5.2131595736969370e-02 1.5409607138784843e+01 0 0 0
2410 2 5.6345520437125689e+00 1.3578978184086679e-01 1.7420942953101349e+01 0 0 0
1616 8 1.0126123381580818e+01 1.5493403826351486e+00 1.4833286231438557e+01 0 0 0
2413 5 8.4064953467363743e+00 1.5814318922430322e+00 1.5560360651313767e+01 0 0 0
2414 6 8.3996345583947676e+00 1.6090857582594307e+00 1.7605346018256789e+01 0 0 0
1620 4 1.3156613476050046e+01 1.0048969074335427e-01 1.4842849169687547e+01 0 0 0
2417 1 1.1262906486468026e+01 1.0434818907062862e-01 1.5414719679353684e+01 0 0 0
2418 2 1.1301310792778374e+01 1.0650510448695027e-02 1.7325494260954539e+01 0 0 0
1684 4 1.9867638519783621e+00 3.2861262097244159e+00 1.4851211531290653e+01 0 0 0
2481 1 1.0015114979632102e-01 3.2964645224529878e+00 1.5564795990342086e+01 0 0 0
2482 2 1.9660510962338520e-01 3.1551760173090835e+00 1.7487073427118517e+01 0 0 0
1692 4 7.5443561002768424e+00 3.0910490110858104e+00 1.4808886446334302e+01 0 0 0
2489 1 5.7609861120286885e+00 3.3781451396983457e+00 1.5516811921042471e+01 0 0 0
2490 2 5.7305932807111404e+00 3.2771647306499596e+00 1.7475634878247096e+01 0 0 0
1700 4 1.2968527535841501e+01 3.1784840550987812e+00 1.4780973739525786e+01 0 0 0
2497 1 1.1111241240609397e+01 2.9808643189015958e+00 1.5543279184916534e+01 0 0 0
2498 2 1.1064270174624500e+01 3.0943927858474858e+00 1.7518984458757107e+01 0 0 0
1764 4 1.9939473342364693e+00 6.5002461932141395e+00 1.5039643791291340e+01 0 0 0
2562 2 1.3992228922518241e-01 6.3878538106471234e+00 1.7604561740977200e+01 0 0 0
2561 1 1.8400890854498117e-01 6.5270086173999307e+00 1.5637057292860421e+01 0 0 0
1688 8 4.6278483969029791e+00 4.7746415955804409e+00 1.4789028547141754e+01 0 0 0
2485 5 2.8450116890970958e+00 4.8832300672894577e+00 1.5543006614054793e+01 0 0 0
2486 6 2.8878299672245502e+00 4.8250857747835063e+00 1.7488664764999566e+01 0 0 0
1772 4 7.5781313384772533e+00 6.3753211427372047e+00 1.4999308052478478e+01 0 0 0
2569 1 5.7091118994163148e+00 6.2017800622476376e+00 1.5574448541786595e+01 0 0 0
2570 2 5.6202882382451076e+00 6.3386698849857472e+00 1.7528732135607811e+01 0 0 0
2494 6 8.3224325492503795e+00 4.8555863774587946e+00 1.7564674279516542e+01 0 0 0
2493 5 8.3383721881936168e+00 4.7594223335951522e+00 1.5638337980233771e+01 0 0 0
1780 4 1.2831259188716412e+01 6.4464197422662659e+00 1.4836937029791164e+01 0 0 0
2577 1 1.1111500613529389e+01 6.4822507920409143e+00 1.5531637864690696e+01 0 0 0
2578 2 1.1156126888545938e+01 6.3645347272171051e+00 1.7469267364569895e+01 0 0 0
1844 4 2.2023926994364542e+00 9.6857204147815263e+00 1.4927049171639460e+01 0 0 0
2641 1 3.3392890572269052e-01 9.6629401074994572e+00 1.5536465791055173e+01 0 0 0
2642 2 2.0395080622575643e-01 9.5612636858651960e+00 1.7498450569682312e+01 0 0 0
1768 8 4.8370961701469097e+00 7.9334310914268489e+00 1.4983264258044045e+01 0 0 0
2565 5 3.0304314055609796e+00 8.0849828542344859e+00 1.5667525591334959e+01 0 0 0
2566 6 2.8725814547139925e+00 7.9006208970892136e+00 1.7557409377361985e+01 0 0 0
1852 4 7.5927356987396726e+00 9.6066017341824814e+00 1.4932370590478177e+01 0 0 0
2650 2 5.7020887563751872e+00 9.5958587320173336e+00 1.7605419074905171e+01 0 0 0
2649 1 5.7672146892424845e+00 9.4803741678305204e+00 1.5601410276522616e+01 0 0 0
2573 5 8.4265802464329891e+00 8.0021730096501287e+00 1.5574722006796149e+01 0 0 0
2574 6 8.4890987768964603e+00 7.9919684353982472e+00 1.7570171145100069e+01 0 0 0
1860 4 1.3070708709159080e+01 9.6130595073898526e+00 1.4903120396120897e+01 0 0 0
2657 1 1.1269351202776653e+01 9.6187242125338113e+00 1.5497917347513514e+01 0 0 0
2658 2 1.1322825905155499e+01 9.6739760603666820e+00 1.7429702186505430e+01 0 0 0
2403 3 2.0664276138272366e+00 9.1043614187089145e-02 1.8139298830822383e+01 0 0 0
2404 4 2.1452628302453287e+00 1.0550794288932402e-01 2.0128757724453422e+01 0 0 0
3201 1 4.0079322499495729e-01 -4.0868763598686388e-02 2.1050657016748065e+01 0 0 0
2407 7 4.8400911424931961e+00 1.6387851772622763e+00 1.8063861466971730e+01 0 0 0
2408 8 4.7280271632079565e+00 1.6675875621062943e+00 2.0106422946814103e+01 0 0 0
3205 5 2.9775508218993618e+00 1.8177643730168387e+00 2.0751870784246712e+01 0 0 0
2412 4 7.4058775765770077e+00 3.0894599696951228e-02 2.0077764459023332e+01 0 0 0
2411 3 7.4248253329243887e+00 4.1521186602145849e-02 1.8148196968893441e+01 0 0 0
3209 1 5.6045674460541850e+00 6.9341279543369862e-03 2.0660325500646866e+01 0 0 0
2415 7 1.0261538580024901e+01 1.4149699649781782e+00 1.8095054612025116e+01 0 0 0
2416 8 1.0315460465283524e+01 1.4441607515203942e+00 2.0087501624569793e+01 0 0 0
3213 5 8.4584055248772518e+00 1.5762571593458152e+00 2.0726821083755233e+01 0 0 0
2419 3 1.3049727013382604e+01 1.0903318099086143e-01 1.8166318949919496e+01 0 0 0
2420 4 1.2962807772342984e+01 2.6514834880184086e-02 2.0060074103514697e+01 0 0 0
3217 1 1.1175570968815357e+01 -2.2467254215255622e-01 2.0748016685140872e+01 0 0 0
2484 4 1.9879722001829878e+00 3.2917876514691797e+00 2.0119254151340741e+01 0 0 0
2483 3 1.9584722867769522e+00 3.2178778839479900e+00 1.8172270153131127e+01 0 0 0
3281 1 2.1177388075945300e-01 3.2774876439980534e+00 2.0886208150649743e+01 0 0 0
2492 4 7.4556540306796784e+00 3.1573818215284857e+00 2.0138577804425740e+01 0 0 0
2491 3 7.5408490260772263e+00 3.2103165525454074e+00 1.8239742628805192e+01 0 0 0
3289 1 5.6796290244869105e+00 3.2233375074021224e+00 2.0805866848634281e+01 0 0 0
2500 4 1.3074878595370727e+01 3.1170787723768059e+00 2.0181537670887565e+01 0 0 0
2499 3 1.2905537862320015e+01 3.1851756907441793e+00 1.8233206307406924e+01 0 0 0
3297 1 1.1268703380736104e+01 3.0819423801895041e+00 2.0702747691478613e+01 0 0 0
2563 3 2.0212420358338581e+00 6.3388649959436192e+00 1.8319748105847573e+01 0 0 0
2564 4 2.0324997601732573e+00 6.2662489942264941e+00 2.0341016489343598e+01 0 0 0
3361 1 1.4886280302469304e-01 6.3790057205752904e+00 2.0821668058383374e+01 0 0 0
2487 7 4.6973339239234919e+00 4.8020346332638537e+00 1.8124812971064916e+01 0 0 0
2488 8 4.7217516114708697e+00 4.8092205202195997e+00 2.0205155577863678e+01 0 0 0
3285 5 2.9557766272282509e+00 4.7306222758562573e+00 2.0942222395842144e+01 0 0 0
2571 3 7.5460861891063447e+00 6.4084784566277362e+00 1.8228110959352701e+01 0 0 0
2572 4 7.5365805361505496e+00 6.3151779922815816e+00 2.0261373129127985e+01 0 0 0
3369 1 5.6529843882779689e+00 6.3752170105715438e+00 2.0841655538168531e+01 0 0 0
2496 8 1.0325272627033462e+01 4.7853916189855283e+00 2.0014613824891892e+01 0 0 0
2495 7 1.0183532462209270e+01 4.7329636043691536e+00 1.8088240457911855e+01 0 0 0
3293 5 8.4730525907480772e+00 4.7356318227716026e+00 2.0765170355500771e+01 0 0 0
2579 3 1.3037477107247165e+01 6.2294659988424304e+00 1.8151430983230053e+01 0 0 0
2580 4 1.2995264890590613e+01 6.3534368780541852e+00 2.0130385258737320e+01 0 0 0
3377 1 1.1182780897789931e+01 6.4563373838681919e+00 2.0723553572806413e+01 0 0 0
2643 3 2.0083431569915140e+00 9.6177941658691086e+00 1.8119508059040541e+01 0 0 0
2644 4 2.1193664681898450e+00 9.3683766485409503e+00 2.0132438250631559e+01 0 0 0
3441 1 2.6048590490401391e-01 9.5673972876195403e+00 2.0860478176731014e+01 0 0 0
2567 7 4.7501325668964096e+00 7.9727044086475232e+00 1.8100510181016215e+01 0 0 0
2568 8 4.8361041776821292e+00 7.9609743593580884e+00 2.0058791231794707e+01 0 0 0
3365 5 3.0060542219623945e+00 7.9071735311149718e+00 2.0929674619897426e+01 0 0 0
2652 4 7.4961448795367414e+00 9.5341097546884459e+00 2.0167277371097317e+01 0 0 0
2651 3 7.5626215604758675e+00 9.6287713134635684e+00 1.8233140710906369e+01 0 0 0
2575 7 1.0314587265068226e+01 8.1005880055886568e+00 1.8131978871816138e+01 0 0 0
2576 8 1.0291151212877940e+01 8.0054988566163132e+00 2.0054689359748046e+01 0 0 0
3373 5 8.4232232822986184e+00 7.9399126624908618e+00 2.0799601881965160e+01 0 0 0
2659 3 1.3101131438346700e+01 9.5303627590328315e+00 1.8190348991839155e+01 0 0 0
2660 4 1.3019594067381050e+01 9.5212615338594873e+00 2.0064969782994840e+01 0 0 0
3457 1 1.1240731243121294e+01 9.4996884261973946e+00 2.0783832146698625e+01 0 0 0
3202 2 8.4532652862547034e-02 1.4814161230479655e-01 2.2919293195389919e+01 0 0 0
3203 3 2.0498126636843752e+00 3.3842624078101936e-02 2.3292154230981236e+01 0 0 0
3206 6 2.9467564917940283e+00 1.6588491285625999e+00 2.2694852292516472e+01 0 0 0
3207 7 4.8132733641548615e+00 1.6396984684712723e+00 2.3316212769729379e+01 0 0 0
3210 2 5.7733061284502725e+00 6.1167902636579473e-02 2.2590781096791197e+01 0 0 0
3211 3 7.4709504366711403e+00 -1.1427806110191650e-01 2.3415510379804562e+01 0 0 0
3214 6 8.4293522620951631e+00 1.5217178255592170e+00 2.2694797650453399e+01 0 0 0
3215 7 1.0369640911665028e+01 1.5955768050452104e+00 2.3363135743972880e+01 0 0 0
3219 3 1.3130348362632555e+01 -1.0365844864608334e-01 2.3462009860975702e+01 0 0 0
3218 2 1.1243697886347142e+01 -9.1798598209323380e-03 2.2652851431925967e+01 0 0 0
3282 2 1.8913098273545428e-01 3.2699258896090719e+00 2.2855706713838121e+01 0 0 0
3283 3 2.0275399871345465e+00 3.1338325019201045e+00 2.3489846925676609e+01 0 0 0
3290 2 5.6879487370186661e+00 3.2909803970636209e+00 2.2719241225496368e+01 0 0 0
3291 3 7.5643925804622016e+00 3.1391704904229885e+00 2.3446252870276410e+01 0 0 0
3298 2 1.1190508758524540e+01 3.1704272564097815e+00 2.2653589517144006e+01 0 0 0
3299 3 1.3109347882373552e+01 3.1445830607927929e+00 2.3514874233939327e+01 0 0 0
3362 2 6.8962928373996674e-02 6.5180458393719336e+00 2.2738655416303164e+01 0 0 0
3363 3 1.8345975626983908e+00 6.1677279869756365e+00 2.3450999685347174e+01 0 0 0
3287 7 4.7584011930973924e+00 4.8887581478214832e+00 2.3365325453551939e+01 0 0 0
3286 6 2.9297526378019145e+00 4.7408291456787977e+00 2.2897004526750067e+01 0 0 0
3370 2 5.7135954881988802e+00 6.4406258030709465e+00 2.2759145324178480e+01 0 0 0
3371 3 7.6327346501142390e+00 6.3640977710209627e+00 2.3396397590232890e+01 0 0 0
3294 6 8.5488173605560309e+00 4.7140038430723523e+00 2.2778922498032525e+01 0 0 0
3295 7 1.0331785337622442e+01 4.8052918596909722e+00 2.3292946307934475e+01 0 0 0
3379 3 1.3074111301791985e+01 6.3623026462026173e+00 2.3237688544545708e+01 0 0 0
3378 2 1.1312121881607148e+01 6.4651231745371751e+00 2.2761343697244868e+01 0 0 0
3442 2 2.6887035538040832e-01 9.6317080708553355e+00 2.2810672915274086e+01 0 0 0
3443 3 2.1576603862994501e+00 9.4926473735458767e+00 2.3372895994820187e+01 0 0 0
3366 6 2.9807318818306365e+00 7.7135797674891284e+00 2.2903522418381112e+01 0 0 0
3367 7 4.8456811490349780e+00 7.9834044252132372e+00 2.3455559834956055e+01 0 0 0
3449 1 5.6846424530099444e+00 9.5544111201744570e+00 2.0677966727467659e+01 0 0 0
3450 2 5.6956024560702421e+00 9.5899411268185126e+00 2.2788946971313248e+01 0 0 0
3451 3 7.4900095060031600e+00 9.6721029891132435e+00 2.3474952742959349e+01 0 0 0
3374 6 8.4072990688040452e+00 8.0109019113551927e+00 2.2815284314271221e+01 0 0 0
3375 7 1.0282528214386602e+01 7.9059513459160939e+00 2.3536198513555291e+01 0 0 0
3458 2 1.1148288055028402e+01 9.5298342057987373e+00 2.2830463636415413e+01 0 0 0
3459 3 1.2979225206981525e+01 9.5530702145371063e+00 2.3327193694433532e+01 0 0 0
3204 4 2.1175304157910921e+00 8.7187626854417333e-02 2.5389319331980253e+01 0 0 0
4001 1 2.5675681568891512e-01 -8.6130779169268840e-02 2.5992640457540130e+01 0 0 0
4005 5 3.0502163155529423e+00 1.6761787196747389e+00 2.6004908733210339e+01 0 0 0
3208 8 4.8127607839365449e+00 1.6958602039261135e+00 2.5215897332491981e+01 0 0 0
4009 1 5.9783260214777814e+00 -8.5983169876576830e-03 2.5734225177275686e+01 0 0 0
3212 4 7.7726306341860010e+00 1.2883790241449561e-01 2.5366678182754654e+01 0 0 0
3216 8 1.0469977408776911e+01 1.6422924358997693e+00 2.5302057483080734e+01 0 0 0
4013 5 8.5706549057135977e+00 1.7563080330205563e+00 2.5934631009611547e+01 0 0 0
4017 1 1.1352735250827450e+01 -7.3064799081818425e-03 2.5944965182104102e+01 0 0 0
3220 4 1.3189293443137711e+01 -6.0123396140455178e-02 2.5374978862102392e+01 0 0 0
3284 4 2.1235822219038933e+00 3.2447587318193398e+00 2.5456841164352298e+01 0 0 0
4081 1 3.0632310167297855e-01 3.2100051021976457e+00 2.6013617598770740e+01 0 0 0
4089 1 5.8003279893499116e+00 3.3170663498696809e+00 2.5892900078474881e+01 0 0 0
3292 4 7.6262755152872126e+00 3.3214891213711728e+00 2.5336283810934749e+01 0 0 0
4097 1 1.1357105593370107e+01 3.2187793813999512e+00 2.6026733188849583e+01 0 0 0
3300 4 1.3133337220251837e+01 3.1767855985240843e+00 2.5430947994145004e+01 0 0 0
3364 4 2.0015505471449009e+00 6.4566540394397931e+00 2.5388524583743429e+01 0 0 0
4161 1 1.5739530988765563e-01 6.4511766038025069e+00 2.6075149685401506e+01 0 0 0
4085 5 2.9390169899609400e+00 4.8756627080017561e+00 2.6075668861683472e+01 0 0 0
3288 8 4.8258414442699014e+00 4.9012317742581928e+00 2.5308089812910225e+01 0 0 0
4169 1 5.8025265887459652e+00 6.3860003631160813e+00 2.5959849216087406e+01 0 0 0