LAMMPS DATA FILE FOR SED

11200 atoms

8 atom types

-0.4603 54.77569999999999 xlo xhi
-0.79725 31.092750000000002 ylo yhi
-0.3255 72.5865 zlo zhi

Masses

1 69.723
2 14.007
3 69.723
4 14.007
5 69.723
6 14.007
7 69.723
8 14.007

Atoms

1 1 0.0 0.0 0.0
2 2 0.0 0.0 1.953
3 3 1.8412 0.0 2.604
4 4 1.8412 0.0 4.557
5 5 2.7618 1.5945 0.0
6 6 2.7618 1.5945 1.953
7 7 4.603 1.5945 2.604
8 8 4.603 1.5945 4.557
9 1 5.5236 0.0 0.0
10 2 5.5236 0.0 1.953
11 3 7.3648 0.0 2.604
12 4 7.3648 0.0 4.557
13 5 8.2854 1.5945 0.0
14 6 8.2854 1.5945 1.953
15 7 10.1266 1.5945 2.604
16 8 10.1266 1.5945 4.557
17 1 11.0472 0.0 0.0
18 2 11.0472 0.0 1.953
19 3 12.888399999999999 0.0 2.604
20 4 12.888399999999999 0.0 4.557
21 5 13.809 1.5945 0.0
22 6 13.809 1.5945 1.953
23 7 15.6502 1.5945 2.604
24 8 15.6502 1.5945 4.557
25 1 16.5708 0.0 0.0
26 2 16.5708 0.0 1.953
27 3 18.412 0.0 2.604
28 4 18.412 0.0 4.557
29 5 19.3326 1.5945 0.0
30 6 19.3326 1.5945 1.953
31 7 21.1738 1.5945 2.604
32 8 21.1738 1.5945 4.557
33 1 22.0944 0.0 0.0
34 2 22.0944 0.0 1.953
35 3 23.9356 0.0 2.604
36 4 23.9356 0.0 4.557
37 5 24.856199999999998 1.5945 0.0
38 6 24.856199999999998 1.5945 1.953
39 7 26.6974 1.5945 2.604
40 8 26.6974 1.5945 4.557
41 1 27.618 0.0 0.0
42 2 27.618 0.0 1.953
43 3 29.4592 0.0 2.604
44 4 29.4592 0.0 4.557
45 5 30.3798 1.5945 0.0
46 6 30.3798 1.5945 1.953
47 7 32.221 1.5945 2.604
48 8 32.221 1.5945 4.557
49 1 33.1416 0.0 0.0
50 2 33.1416 0.0 1.953
51 3 34.9828 0.0 2.604
52 4 34.9828 0.0 4.557
53 5 35.9034 1.5945 0.0
54 6 35.9034 1.5945 1.953
55 7 37.7446 1.5945 2.604
56 8 37.7446 1.5945 4.557
57 1 38.6652 0.0 0.0
58 2 38.6652 0.0 1.953
59 3 40.5064 0.0 2.604
60 4 40.5064 0.0 4.557
61 5 41.427 1.5945 0.0
62 6 41.427 1.5945 1.953
63 7 43.2682 1.5945 2.604
64 8 43.2682 1.5945 4.557
65 1 44.1888 0.0 0.0
66 2 44.1888 0.0 1.953
67 3 46.03 0.0 2.604
68 4 46.03 0.0 4.557
69 5 46.9506 1.5945 0.0
70 6 46.9506 1.5945 1.953
71 7 48.7918 1.5945 2.604
72 8 48.7918 1.5945 4.557
73 1 49.712399999999995 0.0 0.0
74 2 49.712399999999995 0.0 1.953
75 3 51.553599999999996 0.0 2.604
76 4 51.553599999999996 0.0 4.557
77 5 52.474199999999996 1.5945 0.0
78 6 52.474199999999996 1.5945 1.953
79 7 54.3154 1.5945 2.604
80 8 54.3154 1.5945 4.557
81 1 0.0 3.189 0.0
82 2 0.0 3.189 1.953
83 3 1.8412 3.189 2.604
84 4 1.8412 3.189 4.557
85 5 2.7618 4.7835 0.0
86 6 2.7618 4.7835 1.953
87 7 4.603 4.7835 2.604
88 8 4.603 4.7835 4.557
89 1 5.5236 3.189 0.0
90 2 5.5236 3.189 1.953
91 3 7.3648 3.189 2.604
92 4 7.3648 3.189 4.557
93 5 8.2854 4.7835 0.0
94 6 8.2854 4.7835 1.953
95 7 10.1266 4.7835 2.604
96 8 10.1266 4.7835 4.557
97 1 11.0472 3.189 0.0
98 2 11.0472 3.189 1.953
99 3 12.888399999999999 3.189 2.604
100 4 12.888399999999999 3.189 4.557
101 5 13.809 4.7835 0.0
102 6 13.809 4.7835 1.953
103 7 15.6502 4.7835 2.604
104 8 15.6502 4.7835 4.557
105 1 16.5708 3.189 0.0
106 2 16.5708 3.189 1.953
107 3 18.412 3.189 2.604
108 4 18.412 3.189 4.557
109 5 19.3326 4.7835 0.0
110 6 19.3326 4.7835 1.953
111 7 21.1738 4.7835 2.604
112 8 21.1738 4.7835 4.557
113 1 22.0944 3.189 0.0
114 2 22.0944 3.189 1.953
115 3 23.9356 3.189 2.604
116 4 23.9356 3.189 4.557
117 5 24.856199999999998 4.7835 0.0
118 6 24.856199999999998 4.7835 1.953
119 7 26.6974 4.7835 2.604
120 8 26.6974 4.7835 4.557
121 1 27.618 3.189 0.0
122 2 27.618 3.189 1.953
123 3 29.4592 3.189 2.604
124 4 29.4592 3.189 4.557
125 5 30.3798 4.7835 0.0
126 6 30.3798 4.7835 1.953
127 7 32.221 4.7835 2.604
128 8 32.221 4.7835 4.557
129 1 33.1416 3.189 0.0
130 2 33.1416 3.189 1.953
131 3 34.9828 3.189 2.604
132 4 34.9828 3.189 4.557
133 5 35.9034 4.7835 0.0
134 6 35.9034 4.7835 1.953
135 7 37.7446 4.7835 2.604
136 8 37.7446 4.7835 4.557
137 1 38.6652 3.189 0.0
138 2 38.6652 3.189 1.953
139 3 40.5064 3.189 2.604
140 4 40.5064 3.189 4.557
141 5 41.427 4.7835 0.0
142 6 41.427 4.7835 1.953
143 7 43.2682 4.7835 2.604
144 8 43.2682 4.7835 4.557
145 1 44.1888 3.189 0.0
146 2 44.1888 3.189 1.953
147 3 46.03 3.189 2.604
148 4 46.03 3.189 4.557
149 5 46.9506 4.7835 0.0
150 6 46.9506 4.7835 1.953
151 7 48.7918 4.7835 2.604
152 8 48.7918 4.7835 4.557
153 1 49.712399999999995 3.189 0.0
154 2 49.712399999999995 3.189 1.953
155 3 51.553599999999996 3.189 2.604
156 4 51.553599999999996 3.189 4.557
157 5 52.474199999999996 4.7835 0.0
158 6 52.474199999999996 4.7835 1.953
159 7 54.3154 4.7835 2.604
160 8 54.3154 4.7835 4.557
161 1 0.0 6.378 0.0
162 2 0.0 6.378 1.953
163 3 1.8412 6.378 2.604
164 4 1.8412 6.378 4.557
165 5 2.7618 7.9725 0.0
166 6 2.7618 7.9725 1.953
167 7 4.603 7.9725 2.604
168 8 4.603 7.9725 4.557
169 1 5.5236 6.378 0.0
170 2 5.5236 6.378 1.953
171 3 7.3648 6.378 2.604
172 4 7.3648 6.378 4.557
173 5 8.2854 7.9725 0.0
174 6 8.2854 7.9725 1.953
175 7 10.1266 7.9725 2.604
176 8 10.1266 7.9725 4.557
177 1 11.0472 6.378 0.0
178 2 11.0472 6.378 1.953
179 3 12.888399999999999 6.378 2.604
180 4 12.888399999999999 6.378 4.557
181 5 13.809 7.9725 0.0
182 6 13.809 7.9725 1.953
183 7 15.6502 7.9725 2.604
184 8 15.6502 7.9725 4.557
185 1 16.5708 6.378 0.0
186 2 16.5708 6.378 1.953
187 3 18.412 6.378 2.604
188 4 18.412 6.378 4.557
189 5 19.3326 7.9725 0.0
190 6 19.3326 7.9725 1.953
191 7 21.1738 7.9725 2.604
192 8 21.1738 7.9725 4.557
193 1 22.0944 6.378 0.0
194 2 22.0944 6.378 1.953
195 3 23.9356 6.378 2.604
196 4 23.9356 6.378 4.557
197 5 24.856199999999998 7.9725 0.0
198 6 24.856199999999998 7.9725 1.953
199 7 26.6974 7.9725 2.604
200 8 26.6974 7.9725 4.557
201 1 27.618 6.378 0.0
202 2 27.618 6.378 1.953
203 3 29.4592 6.378 2.604
204 4 29.4592 6.378 4.557
205 5 30.3798 7.9725 0.0
206 6 30.3798 7.9725 1.953
207 7 32.221 7.9725 2.604
208 8 32.221 7.9725 4.557
209 1 33.1416 6.378 0.0
210 2 33.1416 6.378 1.953
211 3 34.9828 6.378 2.604
212 4 34.9828 6.378 4.557
213 5 35.9034 7.9725 0.0
214 6 35.9034 7.9725 1.953
215 7 37.7446 7.9725 2.604
216 8 37.7446 7.9725 4.557
217 1 38.6652 6.378 0.0
218 2 38.6652 6.378 1.953
219 3 40.5064 6.378 2.604
220 4 40.5064 6.378 4.557
221 5 41.427 7.9725 0.0
222 6 41.427 7.9725 1.953
223 7 43.2682 7.9725 2.604
224 8 43.2682 7.9725 4.557
225 1 44.1888 6.378 0.0
226 2 44.1888 6.378 1.953
227 3 46.03 6.378 2.604
228 4 46.03 6.378 4.557
229 5 46.9506 7.9725 0.0
230 6 46.9506 7.9725 1.953
231 7 48.7918 7.9725 2.604
232 8 48.7918 7.9725 4.557
233 1 49.712399999999995 6.378 0.0
234 2 49.712399999999995 6.378 1.953
235 3 51.553599999999996 6.378 2.604
236 4 51.553599999999996 6.378 4.557
237 5 52.474199999999996 7.9725 0.0
238 6 52.474199999999996 7.9725 1.953
239 7 54.3154 7.9725 2.604
240 8 54.3154 7.9725 4.557
241 1 0.0 9.567 0.0
242 2 0.0 9.567 1.953
243 3 1.8412 9.567 2.604
244 4 1.8412 9.567 4.557
245 5 2.7618 11.1615 0.0
246 6 2.7618 11.1615 1.953
247 7 4.603 11.1615 2.604
248 8 4.603 11.1615 4.557
249 1 5.5236 9.567 0.0
250 2 5.5236 9.567 1.953
251 3 7.3648 9.567 2.604
252 4 7.3648 9.567 4.557
253 5 8.2854 11.1615 0.0
254 6 8.2854 11.1615 1.953
255 7 10.1266 11.1615 2.604
256 8 10.1266 11.1615 4.557
257 1 11.0472 9.567 0.0
258 2 11.0472 9.567 1.953
259 3 12.888399999999999 9.567 2.604
260 4 12.888399999999999 9.567 4.557
261 5 13.809 11.1615 0.0
262 6 13.809 11.1615 1.953
263 7 15.6502 11.1615 2.604
264 8 15.6502 11.1615 4.557
265 1 16.5708 9.567 0.0
266 2 16.5708 9.567 1.953
267 3 18.412 9.567 2.604
268 4 18.412 9.567 4.557
269 5 19.3326 11.1615 0.0
270 6 19.3326 11.1615 1.953
271 7 21.1738 11.1615 2.604
272 8 21.1738 11.1615 4.557
273 1 22.0944 9.567 0.0
274 2 22.0944 9.567 1.953
275 3 23.9356 9.567 2.604
276 4 23.9356 9.567 4.557
277 5 24.856199999999998 11.1615 0.0
278 6 24.856199999999998 11.1615 1.953
279 7 26.6974 11.1615 2.604
280 8 26.6974 11.1615 4.557
281 1 27.618 9.567 0.0
282 2 27.618 9.567 1.953
283 3 29.4592 9.567 2.604
284 4 29.4592 9.567 4.557
285 5 30.3798 11.1615 0.0
286 6 30.3798 11.1615 1.953
287 7 32.221 11.1615 2.604
288 8 32.221 11.1615 4.557
289 1 33.1416 9.567 0.0
290 2 33.1416 9.567 1.953
291 3 34.9828 9.567 2.604
292 4 34.9828 9.567 4.557
293 5 35.9034 11.1615 0.0
294 6 35.9034 11.1615 1.953
295 7 37.7446 11.1615 2.604
296 8 37.7446 11.1615 4.557
297 1 38.6652 9.567 0.0
298 2 38.6652 9.567 1.953
299 3 40.5064 9.567 2.604
300 4 40.5064 9.567 4.557
301 5 41.427 11.1615 0.0
302 6 41.427 11.1615 1.953
303 7 43.2682 11.1615 2.604
304 8 43.2682 11.1615 4.557
305 1 44.1888 9.567 0.0
306 2 44.1888 9.567 1.953
307 3 46.03 9.567 2.604
308 4 46.03 9.567 4.557
309 5 46.9506 11.1615 0.0
310 6 46.9506 11.1615 1.953
311 7 48.7918 11.1615 2.604
312 8 48.7918 11.1615 4.557
313 1 49.712399999999995 9.567 0.0
314 2 49.712399999999995 9.567 1.953
315 3 51.553599999999996 9.567 2.604
316 4 51.553599999999996 9.567 4.557
317 5 52.474199999999996 11.1615 0.0
318 6 52.474199999999996 11.1615 1.953
319 7 54.3154 11.1615 2.604
320 8 54.3154 11.1615 4.557
321 1 0.0 12.756 0.0
322 2 0.0 12.756 1.953
323 3 1.8412 12.756 2.604
324 4 1.8412 12.756 4.557
325 5 2.7618 14.3505 0.0
326 6 2.7618 14.3505 1.953
327 7 4.603 14.3505 2.604
328 8 4.603 14.3505 4.557
329 1 5.5236 12.756 0.0
330 2 5.5236 12.756 1.953
331 3 7.3648 12.756 2.604
332 4 7.3648 12.756 4.557
333 5 8.2854 14.3505 0.0
334 6 8.2854 14.3505 1.953
335 7 10.1266 14.3505 2.604
336 8 10.1266 14.3505 4.557
337 1 11.0472 12.756 0.0
338 2 11.0472 12.756 1.953
339 3 12.888399999999999 12.756 2.604
340 4 12.888399999999999 12.756 4.557
341 5 13.809 14.3505 0.0
342 6 13.809 14.3505 1.953
343 7 15.6502 14.3505 2.604
344 8 15.6502 14.3505 4.557
345 1 16.5708 12.756 0.0
346 2 16.5708 12.756 1.953
347 3 18.412 12.756 2.604
348 4 18.412 12.756 4.557
349 5 19.3326 14.3505 0.0
350 6 19.3326 14.3505 1.953
351 7 21.1738 14.3505 2.604
352 8 21.1738 14.3505 4.557
353 1 22.0944 12.756 0.0
354 2 22.0944 12.756 1.953
355 3 23.9356 12.756 2.604
356 4 23.9356 12.756 4.557
357 5 24.856199999999998 14.3505 0.0
358 6 24.856199999999998 14.3505 1.953
359 7 26.6974 14.3505 2.604
360 8 26.6974 14.3505 4.557
361 1 27.618 12.756 0.0
362 2 27.618 12.756 1.953
363 3 29.4592 12.756 2.604
364 4 29.4592 12.756 4.557
365 5 30.3798 14.3505 0.0
366 6 30.3798 14.3505 1.953
367 7 32.221 14.3505 2.604
368 8 32.221 14.3505 4.557
369 1 33.1416 12.756 0.0
370 2 33.1416 12.756 1.953
371 3 34.9828 12.756 2.604
372 4 34.9828 12.756 4.557
373 5 35.9034 14.3505 0.0
374 6 35.9034 14.3505 1.953
375 7 37.7446 14.3505 2.604
376 8 37.7446 14.3505 4.557
377 1 38.6652 12.756 0.0
378 2 38.6652 12.756 1.953
379 3 40.5064 12.756 2.604
380 4 40.5064 12.756 4.557
381 5 41.427 14.3505 0.0
382 6 41.427 14.3505 1.953
383 7 43.2682 14.3505 2.604
384 8 43.2682 14.3505 4.557
385 1 44.1888 12.756 0.0
386 2 44.1888 12.756 1.953
387 3 46.03 12.756 2.604
388 4 46.03 12.756 4.557
389 5 46.9506 14.3505 0.0
390 6 46.9506 14.3505 1.953
391 7 48.7918 14.3505 2.604
392 8 48.7918 14.3505 4.557
393 1 49.712399999999995 12.756 0.0
394 2 49.712399999999995 12.756 1.953
395 3 51.553599999999996 12.756 2.604
396 4 51.553599999999996 12.756 4.557
397 5 52.474199999999996 14.3505 0.0
398 6 52.474199999999996 14.3505 1.953
399 7 54.3154 14.3505 2.604
400 8 54.3154 14.3505 4.557
401 1 0.0 15.945 0.0
402 2 0.0 15.945 1.953
403 3 1.8412 15.945 2.604
404 4 1.8412 15.945 4.557
405 5 2.7618 17.5395 0.0
406 6 2.7618 17.5395 1.953
407 7 4.603 17.5395 2.604
408 8 4.603 17.5395 4.557
409 1 5.5236 15.945 0.0
410 2 5.5236 15.945 1.953
411 3 7.3648 15.945 2.604
412 4 7.3648 15.945 4.557
413 5 8.2854 17.5395 0.0
414 6 8.2854 17.5395 1.953
415 7 10.1266 17.5395 2.604
416 8 10.1266 17.5395 4.557
417 1 11.0472 15.945 0.0
418 2 11.0472 15.945 1.953
419 3 12.888399999999999 15.945 2.604
420 4 12.888399999999999 15.945 4.557
421 5 13.809 17.5395 0.0
422 6 13.809 17.5395 1.953
423 7 15.6502 17.5395 2.604
424 8 15.6502 17.5395 4.557
425 1 16.5708 15.945 0.0
426 2 16.5708 15.945 1.953
427 3 18.412 15.945 2.604
428 4 18.412 15.945 4.557
429 5 19.3326 17.5395 0.0
430 6 19.3326 17.5395 1.953
431 7 21.1738 17.5395 2.604
432 8 21.1738 17.5395 4.557
433 1 22.0944 15.945 0.0
434 2 22.0944 15.945 1.953
435 3 23.9356 15.945 2.604
436 4 23.9356 15.945 4.557
437 5 24.856199999999998 17.5395 0.0
438 6 24.856199999999998 17.5395 1.953
439 7 26.6974 17.5395 2.604
440 8 26.6974 17.5395 4.557
441 1 27.618 15.945 0.0
442 2 27.618 15.945 1.953
443 3 29.4592 15.945 2.604
444 4 29.4592 15.945 4.557
445 5 30.3798 17.5395 0.0
446 6 30.3798 17.5395 1.953
447 7 32.221 17.5395 2.604
448 8 32.221 17.5395 4.557
449 1 33.1416 15.945 0.0
450 2 33.1416 15.945 1.953
451 3 34.9828 15.945 2.604
452 4 34.9828 15.945 4.557
453 5 35.9034 17.5395 0.0
454 6 35.9034 17.5395 1.953
455 7 37.7446 17.5395 2.604
456 8 37.7446 17.5395 4.557
457 1 38.6652 15.945 0.0
458 2 38.6652 15.945 1.953
459 3 40.5064 15.945 2.604
460 4 40.5064 15.945 4.557
461 5 41.427 17.5395 0.0
462 6 41.427 17.5395 1.953
463 7 43.2682 17.5395 2.604
464 8 43.2682 17.5395 4.557
465 1 44.1888 15.945 0.0
466 2 44.1888 15.945 1.953
467 3 46.03 15.945 2.604
468 4 46.03 15.945 4.557
469 5 46.9506 17.5395 0.0
470 6 46.9506 17.5395 1.953
471 7 48.7918 17.5395 2.604
472 8 48.7918 17.5395 4.557
473 1 49.712399999999995 15.945 0.0
474 2 49.712399999999995 15.945 1.953
475 3 51.553599999999996 15.945 2.604
476 4 51.553599999999996 15.945 4.557
477 5 52.474199999999996 17.5395 0.0
478 6 52.474199999999996 17.5395 1.953
479 7 54.3154 17.5395 2.604
480 8 54.3154 17.5395 4.557
481 1 0.0 19.134 0.0
482 2 0.0 19.134 1.953
483 3 1.8412 19.134 2.604
484 4 1.8412 19.134 4.557
485 5 2.7618 20.7285 0.0
486 6 2.7618 20.7285 1.953
487 7 4.603 20.7285 2.604
488 8 4.603 20.7285 4.557
489 1 5.5236 19.134 0.0
490 2 5.5236 19.134 1.953
491 3 7.3648 19.134 2.604
492 4 7.3648 19.134 4.557
493 5 8.2854 20.7285 0.0
494 6 8.2854 20.7285 1.953
495 7 10.1266 20.7285 2.604
496 8 10.1266 20.7285 4.557
497 1 11.0472 19.134 0.0
498 2 11.0472 19.134 1.953
499 3 12.888399999999999 19.134 2.604
500 4 12.888399999999999 19.134 4.557
501 5 13.809 20.7285 0.0
502 6 13.809 20.7285 1.953
503 7 15.6502 20.7285 2.604
504 8 15.6502 20.7285 4.557
505 1 16.5708 19.134 0.0
506 2 16.5708 19.134 1.953
507 3 18.412 19.134 2.604
508 4 18.412 19.134 4.557
509 5 19.3326 20.7285 0.0
510 6 19.3326 20.7285 1.953
511 7 21.1738 20.7285 2.604
512 8 21.1738 20.7285 4.557
513 1 22.0944 19.134 0.0
514 2 22.0944 19.134 1.953
515 3 23.9356 19.134 2.604
516 4 23.9356 19.134 4.557
517 5 24.856199999999998 20.7285 0.0
518 6 24.856199999999998 20.7285 1.953
519 7 26.6974 20.7285 2.604
520 8 26.6974 20.7285 4.557
521 1 27.618 19.134 0.0
522 2 27.618 19.134 1.953
523 3 29.4592 19.134 2.604
524 4 29.4592 19.134 4.557
525 5 30.3798 20.7285 0.0
526 6 30.3798 20.7285 1.953
527 7 32.221 20.7285 2.604
528 8 32.221 20.7285 4.557
529 1 33.1416 19.134 0.0
530 2 33.1416 19.134 1.953
531 3 34.9828 19.134 2.604
532 4 34.9828 19.134 4.557
533 5 35.9034 20.7285 0.0
534 6 35.9034 20.7285 1.953
535 7 37.7446 20.7285 2.604
536 8 37.7446 20.7285 4.557
537 1 38.6652 19.134 0.0
538 2 38.6652 19.134 1.953
539 3 40.5064 19.134 2.604
540 4 40.5064 19.134 4.557
541 5 41.427 20.7285 0.0
542 6 41.427 20.7285 1.953
543 7 43.2682 20.7285 2.604
544 8 43.2682 20.7285 4.557
545 1 44.1888 19.134 0.0
546 2 44.1888 19.134 1.953
547 3 46.03 19.134 2.604
548 4 46.03 19.134 4.557
549 5 46.9506 20.7285 0.0
550 6 46.9506 20.7285 1.953
551 7 48.7918 20.7285 2.604
552 8 48.7918 20.7285 4.557
553 1 49.712399999999995 19.134 0.0
554 2 49.712399999999995 19.134 1.953
555 3 51.553599999999996 19.134 2.604
556 4 51.553599999999996 19.134 4.557
557 5 52.474199999999996 20.7285 0.0
558 6 52.474199999999996 20.7285 1.953
559 7 54.3154 20.7285 2.604
560 8 54.3154 20.7285 4.557
561 1 0.0 22.323 0.0
562 2 0.0 22.323 1.953
563 3 1.8412 22.323 2.604
564 4 1.8412 22.323 4.557
565 5 2.7618 23.9175 0.0
566 6 2.7618 23.9175 1.953
567 7 4.603 23.9175 2.604
568 8 4.603 23.9175 4.557
569 1 5.5236 22.323 0.0
570 2 5.5236 22.323 1.953
571 3 7.3648 22.323 2.604
572 4 7.3648 22.323 4.557
573 5 8.2854 23.9175 0.0
574 6 8.2854 23.9175 1.953
575 7 10.1266 23.9175 2.604
576 8 10.1266 23.9175 4.557
577 1 11.0472 22.323 0.0
578 2 11.0472 22.323 1.953
579 3 12.888399999999999 22.323 2.604
580 4 12.888399999999999 22.323 4.557
581 5 13.809 23.9175 0.0
582 6 13.809 23.9175 1.953
583 7 15.6502 23.9175 2.604
584 8 15.6502 23.9175 4.557
585 1 16.5708 22.323 0.0
586 2 16.5708 22.323 1.953
587 3 18.412 22.323 2.604
588 4 18.412 22.323 4.557
589 5 19.3326 23.9175 0.0
590 6 19.3326 23.9175 1.953
591 7 21.1738 23.9175 2.604
592 8 21.1738 23.9175 4.557
593 1 22.0944 22.323 0.0
594 2 22.0944 22.323 1.953
595 3 23.9356 22.323 2.604
596 4 23.9356 22.323 4.557
597 5 24.856199999999998 23.9175 0.0
598 6 24.856199999999998 23.9175 1.953
599 7 26.6974 23.9175 2.604
600 8 26.6974 23.9175 4.557
601 1 27.618 22.323 0.0
602 2 27.618 22.323 1.953
603 3 29.4592 22.323 2.604
604 4 29.4592 22.323 4.557
605 5 30.3798 23.9175 0.0
606 6 30.3798 23.9175 1.953
607 7 32.221 23.9175 2.604
608 8 32.221 23.9175 4.557
609 1 33.1416 22.323 0.0
610 2 33.1416 22.323 1.953
611 3 34.9828 22.323 2.604
612 4 34.9828 22.323 4.557
613 5 35.9034 23.9175 0.0
614 6 35.9034 23.9175 1.953
615 7 37.7446 23.9175 2.604
616 8 37.7446 23.9175 4.557
617 1 38.6652 22.323 0.0
618 2 38.6652 22.323 1.953
619 3 40.5064 22.323 2.604
620 4 40.5064 22.323 4.557
621 5 41.427 23.9175 0.0
622 6 41.427 23.9175 1.953
623 7 43.2682 23.9175 2.604
624 8 43.2682 23.9175 4.557
625 1 44.1888 22.323 0.0
626 2 44.1888 22.323 1.953
627 3 46.03 22.323 2.604
628 4 46.03 22.323 4.557
629 5 46.9506 23.9175 0.0
630 6 46.9506 23.9175 1.953
631 7 48.7918 23.9175 2.604
632 8 48.7918 23.9175 4.557
633 1 49.712399999999995 22.323 0.0
634 2 49.712399999999995 22.323 1.953
635 3 51.553599999999996 22.323 2.604
636 4 51.553599999999996 22.323 4.557
637 5 52.474199999999996 23.9175 0.0
638 6 52.474199999999996 23.9175 1.953
639 7 54.3154 23.9175 2.604
640 8 54.3154 23.9175 4.557
641 1 0.0 25.512 0.0
642 2 0.0 25.512 1.953
643 3 1.8412 25.512 2.604
644 4 1.8412 25.512 4.557
645 5 2.7618 27.1065 0.0
646 6 2.7618 27.1065 1.953
647 7 4.603 27.1065 2.604
648 8 4.603 27.1065 4.557
649 1 5.5236 25.512 0.0
650 2 5.5236 25.512 1.953
651 3 7.3648 25.512 2.604
652 4 7.3648 25.512 4.557
653 5 8.2854 27.1065 0.0
654 6 8.2854 27.1065 1.953
655 7 10.1266 27.1065 2.604
656 8 10.1266 27.1065 4.557
657 1 11.0472 25.512 0.0
658 2 11.0472 25.512 1.953
659 3 12.888399999999999 25.512 2.604
660 4 12.888399999999999 25.512 4.557
661 5 13.809 27.1065 0.0
662 6 13.809 27.1065 1.953
663 7 15.6502 27.1065 2.604
664 8 15.6502 27.1065 4.557
665 1 16.5708 25.512 0.0
666 2 16.5708 25.512 1.953
667 3 18.412 25.512 2.604
668 4 18.412 25.512 4.557
669 5 19.3326 27.1065 0.0
670 6 19.3326 27.1065 1.953
671 7 21.1738 27.1065 2.604
672 8 21.1738 27.1065 4.557
673 1 22.0944 25.512 0.0
674 2 22.0944 25.512 1.953
675 3 23.9356 25.512 2.604
676 4 23.9356 25.512 4.557
677 5 24.856199999999998 27.1065 0.0
678 6 24.856199999999998 27.1065 1.953
679 7 26.6974 27.1065 2.604
680 8 26.6974 27.1065 4.557
681 1 27.618 25.512 0.0
682 2 27.618 25.512 1.953
683 3 29.4592 25.512 2.604
684 4 29.4592 25.512 4.557
685 5 30.3798 27.1065 0.0
686 6 30.3798 27.1065 1.953
687 7 32.221 27.1065 2.604
688 8 32.221 27.1065 4.557
689 1 33.1416 25.512 0.0
690 2 33.1416 25.512 1.953
691 3 34.9828 25.512 2.604
692 4 34.9828 25.512 4.557
693 5 35.9034 27.1065 0.0
694 6 35.9034 27.1065 1.953
695 7 37.7446 27.1065 2.604
696 8 37.7446 27.1065 4.557
697 1 38.6652 25.512 0.0
698 2 38.6652 25.512 1.953
699 3 40.5064 25.512 2.604
700 4 40.5064 25.512 4.557
701 5 41.427 27.1065 0.0
702 6 41.427 27.1065 1.953
703 7 43.2682 27.1065 2.604
704 8 43.2682 27.1065 4.557
705 1 44.1888 25.512 0.0
706 2 44.1888 25.512 1.953
707 3 46.03 25.512 2.604
708 4 46.03 25.512 4.557
709 5 46.9506 27.1065 0.0
710 6 46.9506 27.1065 1.953
711 7 48.7918 27.1065 2.604
712 8 48.7918 27.1065 4.557
713 1 49.712399999999995 25.512 0.0
714 2 49.712399999999995 25.512 1.953
715 3 51.553599999999996 25.512 2.604
716 4 51.553599999999996 25.512 4.557
717 5 52.474199999999996 27.1065 0.0
718 6 52.474199999999996 27.1065 1.953
719 7 54.3154 27.1065 2.604
720 8 54.3154 27.1065 4.557
721 1 0.0 28.701 0.0
722 2 0.0 28.701 1.953
723 3 1.8412 28.701 2.604
724 4 1.8412 28.701 4.557
725 5 2.7618 30.2955 0.0
726 6 2.7618 30.2955 1.953
727 7 4.603 30.2955 2.604
728 8 4.603 30.2955 4.557
729 1 5.5236 28.701 0.0
730 2 5.5236 28.701 1.953
731 3 7.3648 28.701 2.604
732 4 7.3648 28.701 4.557
733 5 8.2854 30.2955 0.0
734 6 8.2854 30.2955 1.953
735 7 10.1266 30.2955 2.604
736 8 10.1266 30.2955 4.557
737 1 11.0472 28.701 0.0
738 2 11.0472 28.701 1.953
739 3 12.888399999999999 28.701 2.604
740 4 12.888399999999999 28.701 4.557
741 5 13.809 30.2955 0.0
742 6 13.809 30.2955 1.953
743 7 15.6502 30.2955 2.604
744 8 15.6502 30.2955 4.557
745 1 16.5708 28.701 0.0
746 2 16.5708 28.701 1.953
747 3 18.412 28.701 2.604
748 4 18.412 28.701 4.557
749 5 19.3326 30.2955 0.0
750 6 19.3326 30.2955 1.953
751 7 21.1738 30.2955 2.604
752 8 21.1738 30.2955 4.557
753 1 22.0944 28.701 0.0
754 2 22.0944 28.701 1.953
755 3 23.9356 28.701 2.604
756 4 23.9356 28.701 4.557
757 5 24.856199999999998 30.2955 0.0
758 6 24.856199999999998 30.2955 1.953
759 7 26.6974 30.2955 2.604
760 8 26.6974 30.2955 4.557
761 1 27.618 28.701 0.0
762 2 27.618 28.701 1.953
763 3 29.4592 28.701 2.604
764 4 29.4592 28.701 4.557
765 5 30.3798 30.2955 0.0
766 6 30.3798 30.2955 1.953
767 7 32.221 30.2955 2.604
768 8 32.221 30.2955 4.557
769 1 33.1416 28.701 0.0
770 2 33.1416 28.701 1.953
771 3 34.9828 28.701 2.604
772 4 34.9828 28.701 4.557
773 5 35.9034 30.2955 0.0
774 6 35.9034 30.2955 1.953
775 7 37.7446 30.2955 2.604
776 8 37.7446 30.2955 4.557
777 1 38.6652 28.701 0.0
778 2 38.6652 28.701 1.953
779 3 40.5064 28.701 2.604
780 4 40.5064 28.701 4.557
781 5 41.427 30.2955 0.0
782 6 41.427 30.2955 1.953
783 7 43.2682 30.2955 2.604
784 8 43.2682 30.2955 4.557
785 1 44.1888 28.701 0.0
786 2 44.1888 28.701 1.953
787 3 46.03 28.701 2.604
788 4 46.03 28.701 4.557
789 5 46.9506 30.2955 0.0
790 6 46.9506 30.2955 1.953
791 7 48.7918 30.2955 2.604
792 8 48.7918 30.2955 4.557
793 1 49.712399999999995 28.701 0.0
794 2 49.712399999999995 28.701 1.953
795 3 51.553599999999996 28.701 2.604
796 4 51.553599999999996 28.701 4.557
797 5 52.474199999999996 30.2955 0.0
798 6 52.474199999999996 30.2955 1.953
799 7 54.3154 30.2955 2.604
800 8 54.3154 30.2955 4.557
801 1 0.0 0.0 5.208
802 2 0.0 0.0 7.1610000000000005
803 3 1.8412 0.0 7.812
804 4 1.8412 0.0 9.765
805 5 2.7618 1.5945 5.208
806 6 2.7618 1.5945 7.1610000000000005
807 7 4.603 1.5945 7.812
808 8 4.603 1.5945 9.765
809 1 5.5236 0.0 5.208
810 2 5.5236 0.0 7.1610000000000005
811 3 7.3648 0.0 7.812
812 4 7.3648 0.0 9.765
813 5 8.2854 1.5945 5.208
814 6 8.2854 1.5945 7.1610000000000005
815 7 10.1266 1.5945 7.812
816 8 10.1266 1.5945 9.765
817 1 11.0472 0.0 5.208
818 2 11.0472 0.0 7.1610000000000005
819 3 12.888399999999999 0.0 7.812
820 4 12.888399999999999 0.0 9.765
821 5 13.809 1.5945 5.208
822 6 13.809 1.5945 7.1610000000000005
823 7 15.6502 1.5945 7.812
824 8 15.6502 1.5945 9.765
825 1 16.5708 0.0 5.208
826 2 16.5708 0.0 7.1610000000000005
827 3 18.412 0.0 7.812
828 4 18.412 0.0 9.765
829 5 19.3326 1.5945 5.208
830 6 19.3326 1.5945 7.1610000000000005
831 7 21.1738 1.5945 7.812
832 8 21.1738 1.5945 9.765
833 1 22.0944 0.0 5.208
834 2 22.0944 0.0 7.1610000000000005
835 3 23.9356 0.0 7.812
836 4 23.9356 0.0 9.765
837 5 24.856199999999998 1.5945 5.208
838 6 24.856199999999998 1.5945 7.1610000000000005
839 7 26.6974 1.5945 7.812
840 8 26.6974 1.5945 9.765
841 1 27.618 0.0 5.208
842 2 27.618 0.0 7.1610000000000005
843 3 29.4592 0.0 7.812
844 4 29.4592 0.0 9.765
845 5 30.3798 1.5945 5.208
846 6 30.3798 1.5945 7.1610000000000005
847 7 32.221 1.5945 7.812
848 8 32.221 1.5945 9.765
849 1 33.1416 0.0 5.208
850 2 33.1416 0.0 7.1610000000000005
851 3 34.9828 0.0 7.812
852 4 34.9828 0.0 9.765
853 5 35.9034 1.5945 5.208
854 6 35.9034 1.5945 7.1610000000000005
855 7 37.7446 1.5945 7.812
856 8 37.7446 1.5945 9.765
857 1 38.6652 0.0 5.208
858 2 38.6652 0.0 7.1610000000000005
859 3 40.5064 0.0 7.812
860 4 40.5064 0.0 9.765
861 5 41.427 1.5945 5.208
862 6 41.427 1.5945 7.1610000000000005
863 7 43.2682 1.5945 7.812
864 8 43.2682 1.5945 9.765
865 1 44.1888 0.0 5.208
866 2 44.1888 0.0 7.1610000000000005
867 3 46.03 0.0 7.812
868 4 46.03 0.0 9.765
869 5 46.9506 1.5945 5.208
870 6 46.9506 1.5945 7.1610000000000005
871 7 48.7918 1.5945 7.812
872 8 48.7918 1.5945 9.765
873 1 49.712399999999995 0.0 5.208
874 2 49.712399999999995 0.0 7.1610000000000005
875 3 51.553599999999996 0.0 7.812
876 4 51.553599999999996 0.0 9.765
877 5 52.474199999999996 1.5945 5.208
878 6 52.474199999999996 1.5945 7.1610000000000005
879 7 54.3154 1.5945 7.812
880 8 54.3154 1.5945 9.765
881 1 0.0 3.189 5.208
882 2 0.0 3.189 7.1610000000000005
883 3 1.8412 3.189 7.812
884 4 1.8412 3.189 9.765
885 5 2.7618 4.7835 5.208
886 6 2.7618 4.7835 7.1610000000000005
887 7 4.603 4.7835 7.812
888 8 4.603 4.7835 9.765
889 1 5.5236 3.189 5.208
890 2 5.5236 3.189 7.1610000000000005
891 3 7.3648 3.189 7.812
892 4 7.3648 3.189 9.765
893 5 8.2854 4.7835 5.208
894 6 8.2854 4.7835 7.1610000000000005
895 7 10.1266 4.7835 7.812
896 8 10.1266 4.7835 9.765
897 1 11.0472 3.189 5.208
898 2 11.0472 3.189 7.1610000000000005
899 3 12.888399999999999 3.189 7.812
900 4 12.888399999999999 3.189 9.765
901 5 13.809 4.7835 5.208
902 6 13.809 4.7835 7.1610000000000005
903 7 15.6502 4.7835 7.812
904 8 15.6502 4.7835 9.765
905 1 16.5708 3.189 5.208
906 2 16.5708 3.189 7.1610000000000005
907 3 18.412 3.189 7.812
908 4 18.412 3.189 9.765
909 5 19.3326 4.7835 5.208
910 6 19.3326 4.7835 7.1610000000000005
911 7 21.1738 4.7835 7.812
912 8 21.1738 4.7835 9.765
913 1 22.0944 3.189 5.208
914 2 22.0944 3.189 7.1610000000000005
915 3 23.9356 3.189 7.812
916 4 23.9356 3.189 9.765
917 5 24.856199999999998 4.7835 5.208
918 6 24.856199999999998 4.7835 7.1610000000000005
919 7 26.6974 4.7835 7.812
920 8 26.6974 4.7835 9.765
921 1 27.618 3.189 5.208
922 2 27.618 3.189 7.1610000000000005
923 3 29.4592 3.189 7.812
924 4 29.4592 3.189 9.765
925 5 30.3798 4.7835 5.208
926 6 30.3798 4.7835 7.1610000000000005
927 7 32.221 4.7835 7.812
928 8 32.221 4.7835 9.765
929 1 33.1416 3.189 5.208
930 2 33.1416 3.189 7.1610000000000005
931 3 34.9828 3.189 7.812
932 4 34.9828 3.189 9.765
933 5 35.9034 4.7835 5.208
934 6 35.9034 4.7835 7.1610000000000005
935 7 37.7446 4.7835 7.812
936 8 37.7446 4.7835 9.765
937 1 38.6652 3.189 5.208
938 2 38.6652 3.189 7.1610000000000005
939 3 40.5064 3.189 7.812
940 4 40.5064 3.189 9.765
941 5 41.427 4.7835 5.208
942 6 41.427 4.7835 7.1610000000000005
943 7 43.2682 4.7835 7.812
944 8 43.2682 4.7835 9.765
945 1 44.1888 3.189 5.208
946 2 44.1888 3.189 7.1610000000000005
947 3 46.03 3.189 7.812
948 4 46.03 3.189 9.765
949 5 46.9506 4.7835 5.208
950 6 46.9506 4.7835 7.1610000000000005
951 7 48.7918 4.7835 7.812
952 8 48.7918 4.7835 9.765
953 1 49.712399999999995 3.189 5.208
954 2 49.712399999999995 3.189 7.1610000000000005
955 3 51.553599999999996 3.189 7.812
956 4 51.553599999999996 3.189 9.765
957 5 52.474199999999996 4.7835 5.208
958 6 52.474199999999996 4.7835 7.1610000000000005
959 7 54.3154 4.7835 7.812
960 8 54.3154 4.7835 9.765
961 1 0.0 6.378 5.208
962 2 0.0 6.378 7.1610000000000005
963 3 1.8412 6.378 7.812
964 4 1.8412 6.378 9.765
965 5 2.7618 7.9725 5.208
966 6 2.7618 7.9725 7.1610000000000005
967 7 4.603 7.9725 7.812
968 8 4.603 7.9725 9.765
969 1 5.5236 6.378 5.208
970 2 5.5236 6.378 7.1610000000000005
971 3 7.3648 6.378 7.812
972 4 7.3648 6.378 9.765
973 5 8.2854 7.9725 5.208
974 6 8.2854 7.9725 7.1610000000000005
975 7 10.1266 7.9725 7.812
976 8 10.1266 7.9725 9.765
977 1 11.0472 6.378 5.208
978 2 11.0472 6.378 7.1610000000000005
979 3 12.888399999999999 6.378 7.812
980 4 12.888399999999999 6.378 9.765
981 5 13.809 7.9725 5.208
982 6 13.809 7.9725 7.1610000000000005
983 7 15.6502 7.9725 7.812
984 8 15.6502 7.9725 9.765
985 1 16.5708 6.378 5.208
986 2 16.5708 6.378 7.1610000000000005
987 3 18.412 6.378 7.812
988 4 18.412 6.378 9.765
989 5 19.3326 7.9725 5.208
990 6 19.3326 7.9725 7.1610000000000005
991 7 21.1738 7.9725 7.812
992 8 21.1738 7.9725 9.765
993 1 22.0944 6.378 5.208
994 2 22.0944 6.378 7.1610000000000005
995 3 23.9356 6.378 7.812
996 4 23.9356 6.378 9.765
997 5 24.856199999999998 7.9725 5.208
998 6 24.856199999999998 7.9725 7.1610000000000005
999 7 26.6974 7.9725 7.812
1000 8 26.6974 7.9725 9.765
1001 1 27.618 6.378 5.208
1002 2 27.618 6.378 7.1610000000000005
1003 3 29.4592 6.378 7.812
1004 4 29.4592 6.378 9.765
1005 5 30.3798 7.9725 5.208
1006 6 30.3798 7.9725 7.1610000000000005
1007 7 32.221 7.9725 7.812
1008 8 32.221 7.9725 9.765
1009 1 33.1416 6.378 5.208
1010 2 33.1416 6.378 7.1610000000000005
1011 3 34.9828 6.378 7.812
1012 4 34.9828 6.378 9.765
1013 5 35.9034 7.9725 5.208
1014 6 35.9034 7.9725 7.1610000000000005
1015 7 37.7446 7.9725 7.812
1016 8 37.7446 7.9725 9.765
1017 1 38.6652 6.378 5.208
1018 2 38.6652 6.378 7.1610000000000005
1019 3 40.5064 6.378 7.812
1020 4 40.5064 6.378 9.765
1021 5 41.427 7.9725 5.208
1022 6 41.427 7.9725 7.1610000000000005
1023 7 43.2682 7.9725 7.812
1024 8 43.2682 7.9725 9.765
1025 1 44.1888 6.378 5.208
1026 2 44.1888 6.378 7.1610000000000005
1027 3 46.03 6.378 7.812
1028 4 46.03 6.378 9.765
1029 5 46.9506 7.9725 5.208
1030 6 46.9506 7.9725 7.1610000000000005
1031 7 48.7918 7.9725 7.812
1032 8 48.7918 7.9725 9.765
1033 1 49.712399999999995 6.378 5.208
1034 2 49.712399999999995 6.378 7.1610000000000005
1035 3 51.553599999999996 6.378 7.812
1036 4 51.553599999999996 6.378 9.765
1037 5 52.474199999999996 7.9725 5.208
1038 6 52.474199999999996 7.9725 7.1610000000000005
1039 7 54.3154 7.9725 7.812
1040 8 54.3154 7.9725 9.765
1041 1 0.0 9.567 5.208
1042 2 0.0 9.567 7.1610000000000005
1043 3 1.8412 9.567 7.812
1044 4 1.8412 9.567 9.765
1045 5 2.7618 11.1615 5.208
1046 6 2.7618 11.1615 7.1610000000000005
1047 7 4.603 11.1615 7.812
1048 8 4.603 11.1615 9.765
1049 1 5.5236 9.567 5.208
1050 2 5.5236 9.567 7.1610000000000005
1051 3 7.3648 9.567 7.812
1052 4 7.3648 9.567 9.765
1053 5 8.2854 11.1615 5.208
1054 6 8.2854 11.1615 7.1610000000000005
1055 7 10.1266 11.1615 7.812
1056 8 10.1266 11.1615 9.765
1057 1 11.0472 9.567 5.208
1058 2 11.0472 9.567 7.1610000000000005