LAMMPS (16 Mar 2018)
atom_style	atomic
units		metal
dimension	3
boundary	p p p
processors	* * *

# ---------------------------------------------------------
read_data       data.relax
  orthogonal box = (-0.4603 -0.79725 -0.3255) to (54.7757 31.0928 72.5865)
  4 by 3 by 6 MPI processor grid
  reading atoms ...
  11200 atoms
pair_style	tersoff
pair_coeff	* * GaN.tersoff Ga N Ga N Ga N Ga N
Reading potential file GaN.tersoff with DATE: 2007-10-22

#--------------- Simulation control parameters ----------------------------------------------------------
variable	Tlo equal 100
variable	T equal 500              				# Kelvin
variable	Thi equal 1500
variable	V equal vol             				# A^3
variable	dt equal 0.0002          				# 0.8fs; in picoseconds = 1e-12 s
variable	NRUNNVT equal 1000000
variable        NRUNNPT equal 200000
variable	NRUNanneal equal 500000
variable	NRUNNVE equal 200000
variable	thermocalc equal 2000
variable	snapprint equal 10000
variable        Lx equal xhi-xlo
variable        Ly equal yhi-ylo
print           "Lx = ${Lx} A"
Lx = 55.236 A
print           "Ly = ${Ly} A"
Ly = 31.89 A
timestep  	${dt}
timestep  	0.0002

# -------------- Print structure -----------------------
dump		snapxyz all custom 100 sisnap.lammpstrj id type x y z

# -------------- Relax Structure at 0K --------------------------
thermo_style    custom step temp pe etotal press pxx pyy pzz lx ly lz fmax fnorm
thermo		100
fix		filmrelax all box/relax x 0 y 0 z 0 couple none		#Try different methods to relax different systems
minimize	0.0 5e-10 100000 10000000
WARNING: Using 'neigh_modify every 1 delay 0 check yes' setting during minimization (../min.cpp:168)
Neighbor list info ...
  update every 1 steps, delay 0 steps, check yes
  max neighbors/atom: 2000, page size: 100000
  master list distance cutoff = 5.1
  ghost atom cutoff = 5.1
  binsize = 2.55, bins = 22 13 29
  1 neighbor lists, perpetual/occasional/extra = 1 0 0
  (1) pair tersoff, perpetual
      attributes: full, newton on
      pair build: full/bin/atomonly
      stencil: full/bin/3d
      bin: standard
Per MPI rank memory allocation (min/avg/max) = 5.093 | 5.137 | 5.464 Mbytes
Step Temp PotEng TotEng Press Pxx Pyy Pzz Lx Ly Lz Fmax Fnorm 
       0            0   -50706.543   -50706.543   -15740.951   -15665.731   -15607.597   -15949.524       55.236        31.89       72.912 0.0015362183    0.1652057 
      49            0   -50711.416   -50711.416 1.6025889e-09 1.1776456e-09 -6.6314022e-10 4.2932613e-09     55.09523    31.809246    72.721994 2.8967037e-12 1.9171051e-10 
Loop time of 0.0502854 on 72 procs for 49 steps with 11200 atoms

102.0% CPU use with 72 MPI tasks x no OpenMP threads

Minimization stats:
  Stopping criterion = force tolerance
  Energy initial, next-to-last, final = 
        -50706.5432876     -50711.4161212     -50711.4161212
  Force two-norm initial, final = 2185.63 4.06956e-10
  Force max component initial, final = 1278.54 3.42408e-10
  Final line search alpha, max atom move = 1 3.42408e-10
  Iterations, force evaluations = 49 72

MPI task timing breakdown:
Section |  min time  |  avg time  |  max time  |%varavg| %total
---------------------------------------------------------------
Pair    | 0.026816   | 0.031094   | 0.036273   |   1.6 | 61.84
Neigh   | 0          | 0          | 0          |   0.0 |  0.00
Comm    | 0.0043835  | 0.0094985  | 0.013749   |   2.7 | 18.89
Output  | 0          | 0          | 0          |   0.0 |  0.00
Modify  | 0          | 0          | 0          |   0.0 |  0.00
Other   |            | 0.009693   |            |       | 19.28

Nlocal:    155.556 ave 180 max 135 min
Histogram: 16 0 0 8 16 0 16 8 0 8
Nghost:    884.444 ave 984 max 824 min
Histogram: 16 16 8 0 8 0 0 16 0 8
Neighs:    0 ave 0 max 0 min
Histogram: 72 0 0 0 0 0 0 0 0 0
FullNghs:  7311.11 ave 8460 max 6345 min
Histogram: 16 0 0 8 16 0 16 8 0 8

Total # of neighbors = 526400
Ave neighs/atom = 47
Neighbor list builds = 0
Dangerous builds = 0
min_style	sd
min_modify	dmax 0.2
write_restart	restart.min.*

# -------------- NVT Thermalization -----------------------------
thermo_style    custom step temp pe etotal press pxx pyy pzz lx ly lz
dump_modify     snapxyz every ${snapprint}
dump_modify     snapxyz every 10000
restart		500000 restart
thermo          ${thermocalc}
thermo          2000
velocity	all create ${Tlo} ${SEED} mom yes rot yes dist gaussian
velocity	all create 100 ${SEED} mom yes rot yes dist gaussian
velocity	all create 100 14364 mom yes rot yes dist gaussian
fix		NVT all nvt temp ${Tlo} ${Thi} 0.05 tchain 10
fix		NVT all nvt temp 100 ${Thi} 0.05 tchain 10
fix		NVT all nvt temp 100 1500 0.05 tchain 10
run		${NRUNNVT}
run		1000000
Per MPI rank memory allocation (min/avg/max) = 3.968 | 4.012 | 4.339 Mbytes
Step Temp PotEng TotEng Press Pxx Pyy Pzz Lx Ly Lz 
      49          100   -50711.416   -50566.658    1213.1928    1214.5049    1214.8028    1210.2707     55.09523    31.809246    72.721994 
    2000    72.961681   -50612.218     -50506.6    2535.0507    2575.6849    2574.6828    2454.7843     55.09523    31.809246    72.721994 
    4000     89.05627   -50572.194   -50443.278    3379.0604    3721.5354    3072.5738     3343.072     55.09523    31.809246    72.721994 
    6000    102.85467   -50551.089   -50402.198    3956.1594    4152.3278     3731.143    3985.0075     55.09523    31.809246    72.721994 
    8000    111.37702   -50549.355   -50388.127    3981.2469    3861.9266    4214.1937    3867.6205     55.09523    31.809246    72.721994 
   10000    114.22097   -50546.828   -50381.483    4129.7897    3573.2772    4531.4985    4284.5935     55.09523    31.809246    72.721994 
   12000    116.95798   -50542.235   -50372.928    4233.8869    4297.3709    4291.1185    4113.1712     55.09523    31.809246    72.721994 
   14000    122.62109   -50542.216   -50364.712    4303.3812    4694.2119     3753.802    4462.1296     55.09523    31.809246    72.721994 
   16000     125.5075   -50537.531   -50355.848    4415.5157    4667.5605    4226.4188    4352.5678     55.09523    31.809246    72.721994 
   18000    126.65109   -50532.862   -50349.524    4478.6632    4139.8484    4707.3709    4588.7703     55.09523    31.809246    72.721994 
   20000    128.53309   -50527.649   -50341.586    4634.2176    4069.0361     5030.803    4802.8136     55.09523    31.809246    72.721994 
   22000    130.38773   -50519.444   -50330.697    4788.6788    4833.9777    4708.7744    4823.2844     55.09523    31.809246    72.721994 
   24000    131.95607   -50515.748   -50324.731    4811.8231    5330.9121    4275.7798    4828.7775     55.09523    31.809246    72.721994 
   26000     136.2521   -50511.086   -50313.849    4989.0792     5251.623    4825.9436    4889.6711     55.09523    31.809246    72.721994 
   28000    138.87512   -50509.046   -50308.013    4949.8938    4582.3425    5106.5225    5160.8163     55.09523    31.809246    72.721994 
   30000    138.04986   -50498.731   -50298.892    5138.8389    4621.5605    5649.1434    5145.8129     55.09523    31.809246    72.721994 
   32000    145.23031   -50502.126   -50291.893    5186.9034    5118.9896    5077.3111    5364.4094     55.09523    31.809246    72.721994 
   34000    144.28593   -50493.011   -50284.145    5302.5516    5854.4597    4734.7236    5318.4716     55.09523    31.809246    72.721994 
   36000    151.32442   -50494.894    -50275.84    5469.0014    5704.8196     5244.401    5457.7836     55.09523    31.809246    72.721994 
   38000    152.49114   -50487.859   -50267.115    5528.0711    5148.3828    5803.6278    5632.2027     55.09523    31.809246    72.721994 
   40000    151.68252   -50479.447   -50259.874    5775.9053    5384.0902     6405.457    5538.1686     55.09523    31.809246    72.721994 
   42000    155.69951    -50477.56   -50252.172    5750.4144    5616.8616    5330.3688    6304.0127     55.09523    31.809246    72.721994 
   44000    160.69849   -50473.737   -50241.112    5862.8057    6422.4144    5348.7104    5817.2923     55.09523    31.809246    72.721994 
   46000    164.03092   -50472.481   -50235.033     6069.401    6125.5091     5622.566     6460.128     55.09523    31.809246    72.721994 
   48000    166.67401   -50468.018   -50226.743    6000.7521    5575.6925     6237.064    6189.4998     55.09523    31.809246    72.721994 
   50000    168.56029   -50465.119   -50221.114    6107.4818    5809.2434    6786.6717    5726.5305     55.09523    31.809246    72.721994 
   52000    172.76995   -50460.698   -50210.599    6087.8012    5867.4458    5582.4107    6813.5469     55.09523    31.809246    72.721994 
   54000    173.80279   -50454.523   -50202.929    6393.0938    6979.0443    5769.0717    6431.1655     55.09523    31.809246    72.721994 
   56000    180.71682   -50459.782   -50198.179    6362.7759    6650.4006    6044.3368    6393.5905     55.09523    31.809246    72.721994 
   58000    179.83688   -50446.211   -50185.882    6732.7684     6098.918    7057.0019    7042.3854     55.09523    31.809246    72.721994 
   60000    183.45191     -50442.3   -50176.738    6609.1178    6061.1806    7287.4125    6478.7604     55.09523    31.809246    72.721994 
   62000    183.10889   -50439.002   -50173.937    6767.6603    6655.9619    6389.5527    7257.4662     55.09523    31.809246    72.721994 
   64000    191.36856   -50439.115   -50162.093    6782.4663     7054.873    6275.1403    7017.3857     55.09523    31.809246    72.721994 
   66000    190.73879   -50431.015   -50154.905    7011.6638    7130.1984    6876.9516    7027.8413     55.09523    31.809246    72.721994 
   68000    194.93952   -50431.741   -50149.549     7114.861    6158.0095    7080.8464    8105.7272     55.09523    31.809246    72.721994 
   70000    203.32638   -50428.711   -50134.378      7111.54    6636.9836    7590.9489    7106.6876     55.09523    31.809246    72.721994 
   72000    196.39544   -50418.035   -50133.736    7276.3099    7165.9624    6945.0362    7717.9311     55.09523    31.809246    72.721994 
   74000    202.01145   -50412.524   -50120.095     7231.561    7764.1304    6551.7064    7378.8461     55.09523    31.809246    72.721994 
   76000    208.36129   -50413.467   -50111.846    7485.6653    7568.2491    6991.5861    7897.1606     55.09523    31.809246    72.721994 
   78000    206.77771   -50407.797   -50108.469     7374.683    6827.6549    7046.9516    8249.4425     55.09523    31.809246    72.721994 
   80000    211.64707   -50399.493   -50093.116    7596.2096    6734.6009    8355.8718     7698.156     55.09523    31.809246    72.721994 
   82000    217.20599   -50406.316   -50091.892    7584.5002     6914.389    7568.4614    8270.6501     55.09523    31.809246    72.721994 
   84000    217.11059    -50394.47   -50080.184    7746.8449    8168.4418    7001.5738    8070.5192     55.09523    31.809246    72.721994 
   86000    222.96789   -50391.036   -50068.271    8101.4379    8779.8821    6976.7701    8547.6617     55.09523    31.809246    72.721994 
   88000    225.21687   -50387.856   -50061.836    7923.3675    8148.6436    7597.0798     8024.379     55.09523    31.809246    72.721994 
   90000    228.88395   -50383.952   -50052.624    7996.5879    6857.2114     8230.868    8901.6844     55.09523    31.809246    72.721994 
   92000    227.68032   -50380.416   -50050.829    8201.1513    6985.6286    8480.6675    9137.1578     55.09523    31.809246    72.721994 
   94000    225.52881   -50371.264   -50044.792    8344.0417    8305.0782    8340.8064    8386.2403     55.09523    31.809246    72.721994 
   96000     235.5343   -50367.505   -50026.549    8095.7272    8127.4511    6291.0864     9868.644     55.09523    31.809246    72.721994 
   98000    238.93565   -50364.888   -50019.008    8276.5313    8495.1783    7629.7502    8704.6654     55.09523    31.809246    72.721994 
  100000    241.70802   -50360.868   -50010.976    8591.5935    8120.4594    9037.5327    8616.7884     55.09523    31.809246    72.721994 
  102000    242.06256   -50357.976    -50007.57     8394.935    6730.2429    8148.2117     10306.35     55.09523    31.809246    72.721994 
  104000     243.1586   -50353.006   -50001.013    8729.6383    8648.0869    9049.3594    8491.4685     55.09523    31.809246    72.721994 
  106000    245.15063    -50347.96   -49993.083    8736.7611    8385.6815    7198.8933    10625.708     55.09523    31.809246    72.721994 
  108000    255.04495    -50342.16   -49972.961    9052.9265     9839.943    8306.9086    9011.9278     55.09523    31.809246    72.721994 
  110000    252.59184   -50337.439   -49971.791    8688.7069    7761.9069     7962.977    10341.237     55.09523    31.809246    72.721994 
  112000     256.8705   -50335.009   -49963.168    8909.6562    7962.5602    9684.4605    9081.9478     55.09523    31.809246    72.721994 
  114000    259.73945   -50334.545    -49958.55    8811.5973     7434.634     8316.064    10684.094     55.09523    31.809246    72.721994 
  116000    265.84351    -50330.37   -49945.539    9101.7219    9364.5324    8348.0206    9592.6128     55.09523    31.809246    72.721994 
  118000    261.69285   -50322.063   -49943.241     8869.568    8504.5347    7633.7412    10470.428     55.09523    31.809246    72.721994 
  120000    266.77665   -50313.281   -49927.099    8991.3812    8345.5673    7947.3404    10681.236     55.09523    31.809246    72.721994 
  122000    273.85562   -50309.213   -49912.784    9269.9054    8454.0018    9237.8443     10117.87     55.09523    31.809246    72.721994 
  124000    272.09445   -50307.999   -49914.119    9287.7206    8216.3747    9073.7049    10573.082     55.09523    31.809246    72.721994 
  126000    278.71735   -50304.804   -49901.337    9205.8676    8709.3294     8788.398    10119.875     55.09523    31.809246    72.721994 
  128000     276.9308   -50297.387   -49896.506    9225.3234     8616.249    8377.5683    10682.153     55.09523    31.809246    72.721994 
  130000    283.19108   -50302.432   -49892.489    9425.9548    9454.5353    9507.3567    9315.9723     55.09523    31.809246    72.721994 
  132000    281.65964   -50292.417   -49884.691    9289.5881    7549.3349    8205.5484    12113.881     55.09523    31.809246    72.721994 
  134000    287.57406   -50284.571   -49868.283    9414.8042    8635.4482    9101.8672    10507.097     55.09523    31.809246    72.721994 
  136000    290.10543   -50279.986   -49860.034    9421.6047    8221.0539    9154.6048    10889.155     55.09523    31.809246    72.721994 
  138000    292.75831   -50276.572    -49852.78    9627.8375    8162.7551    7868.9828    12851.775     55.09523    31.809246    72.721994 
  140000    296.17709   -50278.094   -49849.353    9673.5986    9824.8963    8836.1855    10359.714     55.09523    31.809246    72.721994 
  142000     298.6043   -50270.092   -49837.837    9680.6632    8302.4293    7956.8865    12782.674     55.09523    31.809246    72.721994 
  144000    299.91632   -50267.478   -49833.324     9433.166    8357.9819    9774.2657     10167.25     55.09523    31.809246    72.721994 
  146000    302.35348   -50261.971   -49824.289    9922.1801    7943.1089    9018.3922    12805.039     55.09523    31.809246    72.721994 
  148000    311.35902   -50258.081   -49807.363    9949.3251    8913.6518    9025.4779    11908.846     55.09523    31.809246    72.721994 
  150000    304.97941   -50253.568   -49812.085    9825.3126    9192.5242    8027.2332     12256.18     55.09523    31.809246    72.721994 
  152000    312.11517   -50248.087   -49796.273    9593.1218    8310.6873    8422.9394    12045.739     55.09523    31.809246    72.721994 
  154000     312.2234   -50242.869   -49790.899     9728.078    7397.0414    8657.8081    13129.385     55.09523    31.809246    72.721994 
  156000    321.08267   -50237.246   -49772.452    9742.0922    8028.7011    9161.3374    12036.238     55.09523    31.809246    72.721994 
  158000    321.95254    -50230.47   -49764.417    9552.0217    7897.5528    8385.9445    12372.568     55.09523    31.809246    72.721994 
  160000    324.82652   -50225.539   -49755.325    9607.5187    8772.7724    8778.1857    11271.598     55.09523    31.809246    72.721994 
  162000    328.05002   -50222.708   -49747.828    9986.6159    8477.6358    8010.5291    13471.683     55.09523    31.809246    72.721994 
  164000    325.42549   -50216.593   -49745.512    9502.9591      8897.54    8947.3821    10663.955     55.09523    31.809246    72.721994 
  166000    333.14872   -50215.926   -49733.665    9895.1204    8623.3794    7815.9293    13246.052     55.09523    31.809246    72.721994 
  168000    334.51738   -50209.773   -49725.531    9329.2518     8300.054     8119.158    11568.543     55.09523    31.809246    72.721994 
  170000    337.13188   -50197.182   -49709.156     9445.985    6799.0854    7955.1251    13583.744     55.09523    31.809246    72.721994 
  172000    341.03361   -50198.919   -49705.244    9917.4764    6945.9487    8956.0049    13850.476     55.09523    31.809246    72.721994 
  174000    342.21809   -50194.145   -49698.756    10068.089    8009.7929     8575.516    13618.958     55.09523    31.809246    72.721994 
  176000    342.71057   -50178.101   -49681.999    9655.3757    7470.7869    7798.4099     13696.93     55.09523    31.809246    72.721994 
  178000    349.93776   -50184.384   -49677.819    9929.0512    8746.1527    8043.5266    12997.475     55.09523    31.809246    72.721994 
  180000    351.42298   -50175.866   -49667.151     9404.172    7419.9122    6773.0029    14019.601     55.09523    31.809246    72.721994 
  182000    352.21031   -50168.239   -49658.384     9543.953    7925.8221     6966.557     13739.48     55.09523    31.809246    72.721994 
  184000    352.30269   -50171.279   -49661.291    9382.9924    7213.7817    7119.5027    13815.693     55.09523    31.809246    72.721994 
  186000    358.65785   -50161.723   -49642.535    10017.011    7453.4228    7557.8629    15039.746     55.09523    31.809246    72.721994 
  188000    365.37221   -50158.344   -49629.436    9293.0178    7452.6054     8252.422    12174.026     55.09523    31.809246    72.721994 
  190000    364.53155   -50150.247   -49622.556    9441.5533    5248.5344    6285.3439    16790.782     55.09523    31.809246    72.721994 
  192000    365.69284   -50147.016   -49617.645    8768.7481    6188.6688    6838.1928    13279.383     55.09523    31.809246    72.721994 
  194000    369.22065   -50141.558   -49607.079    8790.7395    6208.6078    5498.7144    14664.896     55.09523    31.809246    72.721994 
  196000    372.00067    -50136.41   -49597.908    9601.6811    8245.1761    7769.4428    12790.424     55.09523    31.809246    72.721994 
  198000    377.26783   -50125.354   -49579.227    8574.7118    5770.7973    6104.3414    13848.997     55.09523    31.809246    72.721994 
  200000    380.25476   -50127.706   -49577.255    8770.9498    6754.3474     6179.697    13378.805     55.09523    31.809246    72.721994 
  202000    385.13249   -50122.571   -49565.059    8055.9184    6876.5019    5119.8242    12171.429     55.09523    31.809246    72.721994 
  204000    386.16259   -50119.712   -49560.709    8429.8615    4717.0496     5156.506    15416.029     55.09523    31.809246    72.721994 
  206000    387.63511    -50107.92   -49546.785    7905.6391    4372.9181      5705.76    13638.239     55.09523    31.809246    72.721994 
  208000    392.83509   -50106.327   -49537.665    8217.4588    5817.4876    6097.2141    12737.675     55.09523    31.809246    72.721994 
  210000    390.97463    -50096.76   -49530.792    8127.8235    4773.9966    4874.2377    14735.236     55.09523    31.809246    72.721994 
  212000     395.7136   -50084.762   -49511.933    6808.5687    3077.5843     3547.555    13800.567     55.09523    31.809246    72.721994 
  214000    400.41451   -50089.445   -49509.811    8059.8644    4078.6572    4728.4963     15372.44     55.09523    31.809246    72.721994 
  216000    402.48531   -50090.042   -49507.411    7531.0049    3527.4116    4803.6789    14261.924     55.09523    31.809246    72.721994 
  218000     402.2077   -50075.793   -49493.564    7105.7575    3895.4677    3655.9163    13765.889     55.09523    31.809246    72.721994 
  220000    406.20827   -50064.927   -49476.907    7224.8739    3669.4669     3679.183    14325.972     55.09523    31.809246    72.721994 
  222000    412.47281   -50072.354   -49475.265    7624.1425    4247.6026    2948.4717    15676.353     55.09523    31.809246    72.721994 
  224000    420.67599   -50060.705   -49451.741    6769.3466    3834.0344    3594.7759     12879.23     55.09523    31.809246    72.721994 
  226000    414.36046   -50055.619   -49455.797    6876.7658    2298.7343    3475.4155    14856.148     55.09523    31.809246    72.721994 
  228000    422.29072   -50055.512   -49444.211    7497.1118    1081.1174    4270.6253    17139.593     55.09523    31.809246    72.721994 
  230000     423.0668   -50050.754   -49438.329    6761.5017    2823.4514    4268.3277    13192.726     55.09523    31.809246    72.721994 
  232000    416.96741   -50032.914   -49429.318    6405.1087    914.29895    1816.3408    16484.686     55.09523    31.809246    72.721994 
  234000    430.82401   -50033.022   -49409.368    5570.6387    704.96899    1012.3757    14994.571     55.09523    31.809246    72.721994 
  236000    429.38866   -50037.877   -49416.301    6489.3401    2002.7629    3504.5438    13960.714     55.09523    31.809246    72.721994 
  238000    437.33054   -50032.029   -49398.956    6740.4951    2619.7854    3000.5753    14601.125     55.09523    31.809246    72.721994 
  240000    437.30121   -50017.295   -49384.265     5373.839    1789.9757    443.50418    13888.037     55.09523    31.809246    72.721994 
  242000    435.79971   -50019.556   -49388.699    4813.3136    600.09658   -508.03465    14347.879     55.09523    31.809246    72.721994 
  244000    444.86304   -50012.775   -49368.798    6092.8106    1469.2029    2210.5373    14598.692     55.09523    31.809246    72.721994 
  246000    450.69791   -49993.556   -49341.133    5034.1103   -1577.0843    685.72414    15993.691     55.09523    31.809246    72.721994 
  248000    448.01854   -49998.078   -49349.533    5254.9481    840.59506   -1271.9157    16196.165     55.09523    31.809246    72.721994 
  250000    446.29416   -49976.426   -49330.378     4418.266   -1106.7438   -2063.4166    16424.959     55.09523    31.809246    72.721994 
  252000    449.67064   -49983.041   -49332.104    4852.9425    858.75525   -1620.0397    15320.112     55.09523    31.809246    72.721994 
  254000    455.31809    -50000.43   -49341.319    4789.0238   -739.00849    17.581842    15088.498     55.09523    31.809246    72.721994 
  256000    456.37406   -49975.545   -49314.906    4999.6065   -572.34147   -590.03528    16161.196     55.09523    31.809246    72.721994 
  258000    462.49322   -49976.231   -49306.733    4214.5022   -1629.9776   -487.95034    14761.435     55.09523    31.809246    72.721994 
  260000    458.11382   -49965.952   -49302.794    4508.5475   -1132.0195    12.653915    14645.008     55.09523    31.809246    72.721994 
  262000    468.78499   -49955.223   -49276.618    3857.6953   -1347.1292   -2784.6526    15704.868     55.09523    31.809246    72.721994 
  264000    470.36637   -49956.292   -49275.397    4168.0817    -538.2101   -905.81133    13948.266     55.09523    31.809246    72.721994 
  266000    471.03871    -49938.05   -49256.182    5059.3299   -880.03259   -2440.4116    18498.434     55.09523    31.809246    72.721994 
  268000    477.41861   -49945.971   -49254.867    3183.6273   -3401.7186   -3273.0171    16225.618     55.09523    31.809246    72.721994 
  270000    476.02202   -49932.845   -49243.763    4111.1934   -3617.6283   -986.64588    16937.854     55.09523    31.809246    72.721994 
  272000    485.50142   -49938.647   -49235.843    4099.1115   -1801.2395   -1780.1155    15878.689     55.09523    31.809246    72.721994 
  274000    484.68478   -49929.071   -49227.449    1932.9074   -4050.9875   -2879.2074    12728.917     55.09523    31.809246    72.721994 
  276000    485.43993    -49921.63   -49218.914    1798.8787   -3012.1007   -4564.0166    12972.753     55.09523    31.809246    72.721994 
  278000     487.7303   -49925.074   -49219.043    3127.9356   -3092.4648   -3756.5006    16232.772     55.09523    31.809246    72.721994 
  280000    491.27901   -49904.602   -49193.434    1889.8295   -5810.2717   -3857.4244    15337.185     55.09523    31.809246    72.721994 
  282000    492.05635   -49921.684    -49209.39    2553.1922   -4133.8213   -2874.6536    14668.052     55.09523    31.809246    72.721994 
  284000    495.46302   -49898.406   -49181.181    1131.0178   -6299.7388   -7775.7657    17468.558     55.09523    31.809246    72.721994 
  286000    494.38394   -49905.343    -49189.68    1999.4235   -4555.8288   -6159.1355    16713.235     55.09523    31.809246    72.721994 
  288000    500.38477   -49886.915   -49162.566    586.56707   -6643.6829   -6558.7729    14962.157     55.09523    31.809246    72.721994 
  290000    511.46159   -49892.351   -49151.967     1943.307   -3923.9336   -3829.5437    13583.398     55.09523    31.809246    72.721994 
  292000     505.1275   -49893.329   -49162.115    1366.2563   -4946.5323   -5525.3553    14570.657     55.09523    31.809246    72.721994 
  294000     517.7556   -49877.167   -49127.672     1516.362   -5703.9785   -4886.7982    15139.863     55.09523    31.809246    72.721994 
  296000    515.38907   -49869.855   -49123.786   -53.338328   -7559.1007    -6350.032    13749.118     55.09523    31.809246    72.721994 
  298000    518.43371   -49863.127    -49112.65    1246.8301   -5443.5717   -6592.6239    15776.686     55.09523    31.809246    72.721994 
  300000    521.00885   -49855.012   -49100.808    716.84592   -5720.5493   -6761.7709    14632.858     55.09523    31.809246    72.721994 
  302000    531.22372   -49864.481    -49095.49    221.21338   -8814.4285   -6300.0853    15778.154     55.09523    31.809246    72.721994 
  304000    526.18798   -49856.926   -49095.224    306.34402   -7679.4069   -5705.1147    14303.554     55.09523    31.809246    72.721994 
  306000    526.15151   -49844.941   -49083.292   -227.94263   -9295.0338   -7599.1658    16210.372     55.09523    31.809246    72.721994 
  308000    534.45373   -49837.709   -49064.042    919.33304   -7767.7262    -6158.545     16684.27     55.09523    31.809246    72.721994 
  310000    528.19007   -49840.146   -49075.547   -68.820719   -7598.6694   -7890.8209    15283.028     55.09523    31.809246    72.721994 
  312000    538.21304   -49828.444   -49049.335    514.61657   -6651.0145   -8428.8837    16623.748     55.09523    31.809246    72.721994 
  314000    535.48608   -49822.256   -49047.095    1114.9737   -7845.7045   -5684.2376    16874.863     55.09523    31.809246    72.721994 
  316000    542.60072   -49824.413   -49038.953    704.03067   -7511.4809   -6523.8948    16147.468     55.09523    31.809246    72.721994 
  318000    541.54226   -49812.577   -49028.649   -192.07484   -7226.7049    -9604.232    16254.712     55.09523    31.809246    72.721994 
  320000    551.66129   -49817.101   -49018.525   -386.85352     -9237.39    -8566.949    16643.778     55.09523    31.809246    72.721994 
  322000    547.41081   -49800.881   -49008.458   -1036.7046   -8118.3726   -10632.856    15641.115     55.09523    31.809246    72.721994 
  324000    549.96252    -49803.86   -49007.743    650.46034   -6476.6057   -8413.5793    16841.566     55.09523    31.809246    72.721994 
  326000    557.95671   -49792.239    -48984.55    674.83007   -7590.9834   -8160.1319    17775.605     55.09523    31.809246    72.721994 
  328000    561.19288   -49793.553   -48981.179   -487.00342   -7467.8483   -9571.0026    15577.841     55.09523    31.809246    72.721994 
  330000    562.37319   -49789.128   -48975.045      535.104    -7565.933   -7366.6945    16537.939     55.09523    31.809246    72.721994 
  332000    566.54352   -49778.621   -48958.501   -736.98822   -8552.0742   -9170.0577    15511.167     55.09523    31.809246    72.721994 
  334000    566.36625   -49772.479   -48952.616   -759.91244   -10066.242   -7261.8593    15048.364     55.09523    31.809246    72.721994 
  336000    564.62368   -49776.414   -48959.074   -238.52101   -7688.2087   -8214.0902    15186.736     55.09523    31.809246    72.721994 
  338000    572.91275   -49765.359    -48936.02    619.64999   -8201.5594   -9450.9753    19511.485     55.09523    31.809246    72.721994 
  340000    575.67066   -49774.243   -48940.911   -760.45576   -9607.0691   -8695.5928    16021.295     55.09523    31.809246    72.721994 
  342000    576.19733   -49752.082   -48917.987   -735.62058   -8612.7097   -11595.809    18001.657     55.09523    31.809246    72.721994 
  344000    589.15978   -49743.885   -48891.026    44.834789   -9044.5106   -11587.727    20766.742     55.09523    31.809246    72.721994 
  346000    584.46784     -49745.6   -48899.533   -272.46977    -8074.495   -11324.397    18581.483     55.09523    31.809246    72.721994 
  348000    593.13521   -49752.996   -48894.382   -132.74881    -7341.668   -10947.073    17890.494     55.09523    31.809246    72.721994 
  350000    588.47155   -49740.967   -48889.105   -177.60806   -9800.6699   -8412.7315    17680.577     55.09523    31.809246    72.721994 
  352000    593.31246   -49732.499   -48873.629   -1085.6877   -10225.438   -9775.1223    16743.497     55.09523    31.809246    72.721994 
  354000     596.5265   -49731.955   -48868.433   -1621.8703   -12225.023    -12329.51    19688.922     55.09523    31.809246    72.721994 
  356000    598.32718   -49736.276   -48870.146    -2504.717   -11811.633   -9993.3961    14290.878     55.09523    31.809246    72.721994 
  358000    604.48725   -49715.767   -48840.721   -2658.7318   -14983.002    -11209.11    18215.917     55.09523    31.809246    72.721994 
  360000    611.44251   -49713.341   -48828.227   -1359.8988   -12342.765   -11169.611    19432.679     55.09523    31.809246    72.721994 
  362000    602.01919   -49698.024    -48826.55   -2666.3902   -13119.812   -12561.052    17681.694     55.09523    31.809246    72.721994 
  364000    618.37695   -49715.907   -48820.754   -1885.7825   -12289.414   -9851.6591    16483.725     55.09523    31.809246    72.721994 
  366000    614.36526   -49720.965   -48831.619   -673.94729   -12451.487   -9820.9328    20250.578     55.09523    31.809246    72.721994 
  368000    617.53142   -49693.917   -48799.988   -1012.3918   -12515.923   -10466.843    19945.591     55.09523    31.809246    72.721994 
  370000    620.84355   -49690.825   -48792.102   -961.50858    -10821.15   -9949.0207    17885.645     55.09523    31.809246    72.721994 
  372000    615.63847   -49695.744   -48804.556   -2014.7019   -13806.535   -11561.651     19324.08     55.09523    31.809246    72.721994 
  374000    622.70061   -49679.232    -48777.82    -953.9506   -11197.227    -10910.53    19245.905     55.09523    31.809246    72.721994 
  376000    629.09515   -49690.156   -48779.488   -361.02926   -11161.836   -10096.912     20175.66     55.09523    31.809246    72.721994 
  378000    629.02137   -49676.965   -48766.404   -526.50598   -11574.128   -10780.313    20774.923     55.09523    31.809246    72.721994 
  380000    625.98096    -49665.96     -48759.8   -2654.3055    -10997.91   -12524.983    15559.977     55.09523    31.809246    72.721994 
  382000    632.18201   -49662.978   -48747.841   -1104.6256   -11417.831   -9760.0551     17864.01     55.09523    31.809246    72.721994 
  384000    636.46924   -49653.947   -48732.604    -2866.334   -14099.751   -12549.456    18050.206     55.09523    31.809246    72.721994 
  386000    638.19185   -49660.203   -48736.367   -1714.5097   -12157.372   -13016.353    20030.196     55.09523    31.809246    72.721994 
  388000    640.80826   -49659.465   -48731.841   -2754.9887   -12241.001   -14038.126    18014.161     55.09523    31.809246    72.721994 
  390000    646.49874   -49642.846   -48706.985   -808.82216   -10405.185    -13532.66    21511.379     55.09523    31.809246    72.721994 
  392000    643.07983   -49642.486   -48711.574   -1049.1243   -10333.867   -11848.062    19034.556     55.09523    31.809246    72.721994 
  394000    650.98603   -49642.571   -48700.214   -793.60743   -8899.5435   -13073.404    19592.125     55.09523    31.809246    72.721994 
  396000     659.1076     -49626.5   -48672.386   -585.28874   -9438.7724   -12526.196    20209.102     55.09523    31.809246    72.721994 
  398000    663.44381   -49623.155   -48662.764   -925.25157   -11730.051   -14608.028    23562.324     55.09523    31.809246    72.721994 
  400000    653.94469   -49624.736   -48678.096   -2576.3653   -12851.265   -15445.808    20567.977     55.09523    31.809246    72.721994 
  402000    662.73766   -49625.777   -48666.409   -1520.2485   -12495.101   -14201.288    22135.643     55.09523    31.809246    72.721994 
  404000    659.13475   -49619.128   -48664.974   -2009.2315   -12771.125   -13673.587    20417.018     55.09523    31.809246    72.721994 
  406000    670.80978   -49615.891   -48644.837   -1411.5104   -11910.693   -11243.252    18919.414     55.09523    31.809246    72.721994 
  408000    672.67489   -49626.343   -48652.589    -1834.459   -12654.229   -14942.468     22093.32     55.09523    31.809246    72.721994 
  410000    680.70405   -49602.166   -48616.789   -548.00243   -11286.772   -12348.641    21991.406     55.09523    31.809246    72.721994 
  412000    680.81061   -49591.876   -48606.345   -2120.8322   -14138.354   -14376.632    22152.489     55.09523    31.809246    72.721994 
  414000    680.23493   -49594.311   -48609.613   -2385.6578   -13736.246   -14574.172    21153.445     55.09523    31.809246    72.721994 
  416000    680.23099   -49585.618   -48600.927   -1343.4181   -12001.114   -14329.959    22300.819     55.09523    31.809246    72.721994 
  418000    676.86063    -49576.54   -48596.727   -1779.4888   -13134.037   -14942.021    22737.591     55.09523    31.809246    72.721994 
  420000    695.40021   -49581.346   -48574.695   -2674.7776   -15184.205    -10730.54    17890.412     55.09523    31.809246    72.721994 
  422000    689.02836   -49587.071   -48589.644   -1972.6524   -13174.154   -13730.988    20987.185     55.09523    31.809246    72.721994 
  424000    699.19341    -49572.85   -48560.708   -1346.6911   -12992.664   -14309.888    23262.479     55.09523    31.809246    72.721994 
  426000    692.83689   -49552.492   -48549.552   -2548.0115    -16105.34   -15104.904     23566.21     55.09523    31.809246    72.721994 
  428000    693.66481   -49566.451   -48562.313   -3005.1611    -14349.27   -17206.131    22539.918     55.09523    31.809246    72.721994 
  430000    699.09364     -49567.6   -48555.603   -2157.8194   -14213.192   -13544.585    21284.319     55.09523    31.809246    72.721994 
  432000    699.36153    -49557.84   -48545.456   -3576.9619   -14350.451    -16394.32    20013.885     55.09523    31.809246    72.721994 
  434000    706.08831   -49552.067   -48529.945   -2532.0435   -13066.026   -17368.745    22838.641     55.09523    31.809246    72.721994 
  436000    704.81784   -49553.014    -48532.73   -2218.4337   -13306.579   -13937.578    20588.856     55.09523    31.809246    72.721994 
  438000    716.01727   -49550.612   -48514.116    -570.4548   -13360.008   -11905.426    23554.069     55.09523    31.809246    72.721994 
  440000     709.4802   -49546.347   -48519.315   -1553.4766   -14961.789    -13136.99    23438.349     55.09523    31.809246    72.721994 
  442000    727.20596   -49537.592     -48484.9   -649.90692   -13715.577   -13154.993    24920.849     55.09523    31.809246    72.721994 
  444000     719.0818   -49532.919   -48491.988   -1400.1625   -12269.153   -13735.945    21804.611     55.09523    31.809246    72.721994 
  446000    726.67196   -49535.871   -48483.952   -538.83416   -12578.831   -13866.727    24829.055     55.09523    31.809246    72.721994 
  448000    734.14783   -49531.104   -48468.363   -333.70603   -14654.232   -8571.7117    22224.826     55.09523    31.809246    72.721994 
  450000    733.34122   -49527.023    -48465.45   -1612.6734   -13751.932    -12170.82    21084.731     55.09523    31.809246    72.721994 
  452000    733.28703    -49507.68   -48446.185   -2074.5478   -15705.309   -15390.284     24871.95     55.09523    31.809246    72.721994 
  454000     741.3533   -49502.202   -48429.031   -413.31621   -15586.181   -13075.733    27421.965     55.09523    31.809246    72.721994 
  456000    729.80368   -49503.642    -48447.19   -1918.7228   -16229.621   -13587.288     24060.74     55.09523    31.809246    72.721994 
  458000    746.19867   -49509.822   -48429.637   -1944.5176   -15768.566   -18134.796    28069.809     55.09523    31.809246    72.721994 
  460000    732.91104   -49499.377   -48438.426   -1315.2755    -15629.42   -12412.256     24095.85     55.09523    31.809246    72.721994 
  462000    749.79486   -49484.365   -48398.974   -1509.1805   -13200.742    -15573.59     24246.79     55.09523    31.809246    72.721994 
  464000    748.55903   -49478.732   -48395.129   -2358.5512   -12608.535   -15968.037    21500.919     55.09523    31.809246    72.721994 
  466000    753.35023   -49471.108    -48380.57   -1224.4385   -16189.157   -13685.333    26201.175     55.09523    31.809246    72.721994 
  468000     754.5742    -49473.91     -48381.6   -1167.4793    -13347.97   -12429.514    22275.047     55.09523    31.809246    72.721994 
  470000    767.69626   -49478.113   -48366.808   -904.31318   -12595.533   -13340.687    23223.281     55.09523    31.809246    72.721994 
  472000    752.85264   -49481.269   -48391.451   -1002.1376   -15781.603    -15063.99     27839.18     55.09523    31.809246    72.721994 
  474000    772.74349    -49466.37   -48347.759   -1671.5347   -15039.728   -13849.701    23874.825     55.09523    31.809246    72.721994 
  476000    764.31956   -49466.119   -48359.702   -1907.6655   -16170.004   -14825.464    25272.472     55.09523    31.809246    72.721994 
  478000    769.68785   -49467.003   -48352.815   -2700.1208   -14335.922   -15759.303    21994.863     55.09523    31.809246    72.721994 
  480000    773.01465   -49448.106   -48329.102   -2631.3013   -16533.797    -17417.44    26057.334     55.09523    31.809246    72.721994 
  482000    770.70416   -49433.707   -48318.048   -677.31466   -15368.683   -14332.387    27669.126     55.09523    31.809246    72.721994 
  484000    780.38716   -49449.198   -48319.521   -1988.0413   -17572.245   -14401.467    26009.588     55.09523    31.809246    72.721994 
  486000    772.04306   -49443.866   -48326.268   -1789.3392   -14856.371    -16152.24    25640.594     55.09523    31.809246    72.721994 
  488000    787.46077   -49450.204   -48310.288    -784.3831   -12737.646   -15027.674     25412.17     55.09523    31.809246    72.721994 
  490000    784.08211    -49418.47   -48283.445   -1564.3685   -13972.754   -16285.073    25564.721     55.09523    31.809246    72.721994 
  492000    796.74031   -49435.795   -48282.447   -1966.9066   -13783.545   -16005.449    23888.274     55.09523    31.809246    72.721994 
  494000    790.62489    -49418.15   -48273.654   -515.37108   -11601.782   -15717.213    25772.881     55.09523    31.809246    72.721994 
  496000    792.69867   -49423.683   -48276.185   -1097.8468   -12954.271   -19233.567    28894.298     55.09523    31.809246    72.721994 
  498000    796.76376     -49413.6   -48260.217   -1272.8403   -16151.996   -16156.092    28489.568     55.09523    31.809246    72.721994 
  500000    798.77687   -49404.868   -48248.571   -1582.5526    -16483.89   -14092.747     25828.98     55.09523    31.809246    72.721994 
  502000    802.32595   -49404.006   -48242.572   -607.36311   -16507.051   -14452.529    29137.491     55.09523    31.809246    72.721994 
  504000    801.96208   -49407.308     -48246.4   -2284.5508   -15840.095   -17009.487     25995.93     55.09523    31.809246    72.721994 
  506000    803.31898   -49391.934   -48229.062   -2176.7354    -18462.92   -15508.482    27441.196     55.09523    31.809246    72.721994 
  508000    799.91327   -49380.635   -48222.693   -732.52208   -16226.559   -15244.356    29273.349     55.09523    31.809246    72.721994 
  510000    814.16046   -49380.879   -48202.313   -1684.0123   -14029.419   -16119.966    25097.347     55.09523    31.809246    72.721994 
  512000    809.70909   -49388.275   -48216.152   -3094.0171   -16224.319   -17829.803     24772.07     55.09523    31.809246    72.721994 
  514000     826.4239    -49385.94   -48189.622   -665.03938    -17054.58   -14715.179     29774.64     55.09523    31.809246    72.721994 
  516000    814.04833   -49379.959   -48201.555   -1453.1686   -16918.757   -16196.318     28755.57     55.09523    31.809246    72.721994 
  518000    827.85953   -49365.758   -48167.361    644.97857   -13015.339   -13390.203    28340.477     55.09523    31.809246    72.721994 
  520000    820.47177    -49387.13   -48199.428   -1235.5637   -15350.658   -14801.978    26445.945     55.09523    31.809246    72.721994 
  522000    828.45826   -49378.575   -48179.312   -1056.3427   -13626.642   -14301.163    24758.777     55.09523    31.809246    72.721994 
  524000    847.40658     -49370.1   -48143.407    -893.4018   -16216.476   -16313.317    29849.587     55.09523    31.809246    72.721994 
  526000    833.60739   -49337.575   -48130.858    111.30102    -16022.63   -15513.459    31869.992     55.09523    31.809246    72.721994 
  528000     828.0711    -49357.31   -48158.608    822.70309   -13350.526   -14743.049    30561.684     55.09523    31.809246    72.721994 
  530000    842.26051   -49346.763    -48127.52   -324.87606   -14271.761   -17035.891    30333.024     55.09523    31.809246    72.721994 
  532000    842.13606   -49330.905   -48111.842   -205.67324   -16176.412   -16355.263    31914.655     55.09523    31.809246    72.721994 
  534000    841.78527   -49354.806   -48136.251   -173.68406   -14200.785    -15483.37    29163.103     55.09523    31.809246    72.721994 
  536000    839.68365    -49335.55   -48120.038    1367.4757   -14167.856   -13540.024    31810.307     55.09523    31.809246    72.721994 
  538000    863.52948   -49318.237   -48068.206    -998.0053   -15370.034   -16507.595    28883.614     55.09523    31.809246    72.721994 
  540000    853.64659   -49330.069   -48094.343   -584.01094   -15448.476   -13712.178    27408.621     55.09523    31.809246    72.721994 
  542000    851.06554   -49328.692   -48096.702    1199.1523   -16951.315   -14501.664    35050.436     55.09523    31.809246    72.721994 
  544000    845.57135   -49344.436     -48120.4   -1807.9496   -16366.509   -17598.631    28541.291     55.09523    31.809246    72.721994 
  546000    853.87423   -49311.978   -48075.923   -217.98846   -15846.489   -15978.707     31171.23     55.09523    31.809246    72.721994 
  548000    858.89411   -49297.572    -48054.25   -380.72755   -14801.922   -14620.366    28280.104     55.09523    31.809246    72.721994 
  550000    863.25038   -49291.341   -48041.713   -179.06053   -14276.592   -16847.923    30587.333     55.09523    31.809246    72.721994 
  552000    864.75549    -49293.25   -48041.443   -1405.2114   -15767.987   -17780.856    29333.209     55.09523    31.809246    72.721994 
  554000    887.95523   -49294.082   -48008.691   -29.710172   -15316.754     -15446.5    30674.123     55.09523    31.809246    72.721994 
  556000    885.13007   -49280.532   -47999.232     800.7871   -13303.977   -15838.919    31545.257     55.09523    31.809246    72.721994 
  558000    890.34237    -49298.06   -48009.214   -1562.2193   -18342.616   -18375.218    32031.176     55.09523    31.809246    72.721994 
  560000    882.09053   -49308.957   -48032.057   -591.21711   -13044.681   -17230.998    28502.027     55.09523    31.809246    72.721994 
  562000     880.8875   -49271.664   -47996.505    1595.6853   -14465.219    -16935.49    36187.765     55.09523    31.809246    72.721994 
  564000    893.30038   -49279.928     -47986.8    694.72118   -14556.312   -14060.624      30701.1     55.09523    31.809246    72.721994 
  566000    895.16829   -49288.955   -47993.124    261.99434   -15608.089   -15887.728      32281.8     55.09523    31.809246    72.721994 
  568000    899.61198   -49276.376   -47974.111     329.1007   -15486.448   -15199.631    31673.381     55.09523    31.809246    72.721994 
  570000    902.86334   -49264.624   -47957.653    2452.1231   -13998.743   -12626.338     33981.45     55.09523    31.809246    72.721994 
  572000    900.15311   -49271.149   -47968.102    1011.9442   -17781.991   -13856.116     34673.94     55.09523    31.809246    72.721994 
  574000    898.33914   -49260.982   -47960.561    3220.5548   -16041.552   -13243.941    38947.157     55.09523    31.809246    72.721994 
  576000    909.01707   -49244.034   -47928.155    1565.1372   -14927.978   -15182.368    34805.757     55.09523    31.809246    72.721994 
  578000    906.85271   -49242.254   -47929.508   -11.277192   -18278.691   -15723.202    33968.062     55.09523    31.809246    72.721994 
  580000    896.22401    -49243.98    -47946.62   -256.51113   -18428.132   -15018.237    32676.836     55.09523    31.809246    72.721994 
  582000    917.21338   -49265.775   -47938.031    709.10475   -15400.635   -16844.155    34372.104     55.09523    31.809246    72.721994 
  584000    910.24329   -49238.066   -47920.412    1412.0317   -16438.845   -12779.801    33454.741     55.09523    31.809246    72.721994 
  586000    908.71621   -49235.903    -47920.46    713.63452   -16904.613   -13243.135    32288.652     55.09523    31.809246    72.721994 
  588000    916.18574   -49224.673   -47898.417    919.95429   -16249.272   -16260.247    35269.382     55.09523    31.809246    72.721994 
  590000     927.5593   -49215.959   -47873.239    726.67756   -14507.603   -17542.139    34229.775     55.09523    31.809246    72.721994 
  592000    929.79953   -49227.529   -47881.566    1260.2082   -14307.865    -15252.75     33341.24     55.09523    31.809246    72.721994 
  594000    929.20146   -49214.204   -47869.107    155.04567    -15311.35   -17086.594    32863.081     55.09523    31.809246    72.721994 
  596000    932.30133   -49215.815    -47866.23    1214.8454   -16165.783   -15367.902    35178.221     55.09523    31.809246    72.721994 
  598000    930.08184   -49198.512    -47852.14    2565.6679   -14622.913   -13401.899    35721.816     55.09523    31.809246    72.721994 
  600000    944.17846   -49192.252   -47825.474     3577.569     -15381.7   -12494.946    38609.354     55.09523    31.809246    72.721994 
  602000    937.31109   -49196.302   -47839.465    2028.2247   -15693.967   -14598.671    36377.312     55.09523    31.809246    72.721994 
  604000      937.991   -49189.201    -47831.38    1774.8709   -17024.153   -14487.125    36835.891     55.09523    31.809246    72.721994 
  606000     938.6551   -49171.037   -47812.255    2992.1015   -16080.468   -14082.677     39139.45     55.09523    31.809246    72.721994 
  608000    963.98449   -49193.997   -47798.548     1931.467   -15809.672   -14696.306     36300.38     55.09523    31.809246    72.721994 
  610000     946.1477   -49189.835   -47820.206    2068.8506   -14768.191   -15803.578     36778.32     55.09523    31.809246    72.721994 
  612000    955.95571   -49163.485   -47779.658    938.52403   -16084.322   -17048.294    35948.188     55.09523    31.809246    72.721994 
  614000    959.56372   -49150.727   -47761.677    1637.2883   -14164.722   -17670.857    36747.444     55.09523    31.809246    72.721994 
  616000     968.0218   -49173.497   -47772.203    1886.0466   -18251.621   -15571.632    39481.393     55.09523    31.809246    72.721994 
  618000    962.60536   -49170.658   -47777.205    2218.0331   -15184.159   -15685.271     37523.53     55.09523    31.809246    72.721994 
  620000    962.25939   -49161.631   -47768.679    1896.7215   -14939.546    -15230.88    35860.591     55.09523    31.809246    72.721994 
  622000     971.2177   -49177.816   -47771.896    2160.4301   -16411.596    -15678.07    38570.956     55.09523    31.809246    72.721994 
  624000    974.38357   -49148.214   -47737.712    3464.4582   -15688.732   -16223.519    42305.625     55.09523    31.809246    72.721994 
  626000     960.2696   -49142.487   -47752.416    2361.5429   -17282.988   -12815.914    37183.531     55.09523    31.809246    72.721994 
  628000    992.76761   -49142.023   -47704.908    704.83974   -17918.369   -17277.541    37310.429     55.09523    31.809246    72.721994 
  630000     989.4182   -49151.639   -47719.373    1884.4468   -15226.161    -15681.66    36561.162     55.09523    31.809246    72.721994 
  632000     990.3932       -49133   -47699.323    2122.7338   -18089.541   -15112.508     39570.25     55.09523    31.809246    72.721994 
  634000    976.71528   -49140.574   -47726.696    1745.6252   -13928.949   -14811.258    33977.082     55.09523    31.809246    72.721994 
  636000    990.55419   -49133.711     -47699.8    3013.4558   -13738.367   -18087.931    40866.665     55.09523    31.809246    72.721994 
  638000    988.74615   -49123.516   -47692.223    1603.0242   -16312.248   -15367.929     36489.25     55.09523    31.809246    72.721994 
  640000    993.60225   -49108.805   -47670.482    3221.5648   -15393.157   -15128.224    40186.075     55.09523    31.809246    72.721994 
  642000    983.73758    -49102.51   -47678.467    2368.1036   -16882.284   -12188.624    36175.219     55.09523    31.809246    72.721994 
  644000    983.96288   -49121.503   -47697.133    2265.0991   -14464.277   -15275.196    36534.771     55.09523    31.809246    72.721994 
  646000    993.46507   -49107.465   -47669.341    2346.8293   -14493.319   -15355.275    36889.083     55.09523    31.809246    72.721994 
  648000    992.68525   -49102.104   -47665.109     3617.983   -17398.954   -13799.893    42052.796     55.09523    31.809246    72.721994 
  650000    1013.1694   -49100.125   -47633.477    2362.1337   -13485.391   -16439.211    37011.004     55.09523    31.809246    72.721994 
  652000    1016.7735   -49086.557   -47614.692    1662.4492   -16974.481   -15297.489    37259.317     55.09523    31.809246    72.721994 
  654000    1037.5567   -49109.229   -47607.278    4733.6588   -12900.937   -13879.752    40981.665     55.09523    31.809246    72.721994 
  656000    1014.1994   -49085.027   -47616.888      4550.29   -12890.383   -14703.349    41244.603     55.09523    31.809246    72.721994 
  658000    1012.8797   -49084.323   -47618.095    3076.2502   -14325.304   -16008.997    39563.052     55.09523    31.809246    72.721994 
  660000    1028.2255   -49074.819   -47586.376    5194.4878   -12872.504   -15834.394    44290.362     55.09523    31.809246    72.721994 
  662000    1024.0278   -49081.813   -47599.446    2109.0811   -16036.146   -16588.474    38951.864     55.09523    31.809246    72.721994 
  664000    1024.2524   -49046.151   -47563.459    2373.1731   -13533.423   -17967.145    38620.088     55.09523    31.809246    72.721994 
  666000    1029.1209   -49082.272   -47592.533    3532.2675   -13317.127   -17188.851     41102.78     55.09523    31.809246    72.721994 
  668000    1018.5013   -49061.855   -47587.489    5476.4413   -12183.578   -12824.016    41436.917     55.09523    31.809246    72.721994 
  670000    1049.2121   -49090.575   -47571.752    4157.3608    -12146.89   -11318.425    35937.398     55.09523    31.809246    72.721994 
  672000    1049.4802   -49067.982   -47548.771    3771.6843   -15360.452   -13441.392    40116.897     55.09523    31.809246    72.721994 
  674000    1055.8634   -49058.207   -47529.755    4614.6831   -14776.725   -13590.795    42211.569     55.09523    31.809246    72.721994 
  676000    1046.4548    -49036.69   -47521.858    5658.8661   -13869.215   -11297.561    42143.374     55.09523    31.809246    72.721994 
  678000    1035.2725   -49054.104    -47555.46    4602.8014   -14721.133   -14481.838    43011.376     55.09523    31.809246    72.721994 
  680000    1051.3421    -49055.15   -47533.244    4978.5756   -14363.517   -14036.289    43335.532     55.09523    31.809246    72.721994 
  682000    1058.5033     -49040.2   -47507.927    4878.5756   -14163.138   -12817.025     41615.89     55.09523    31.809246    72.721994 
  684000    1055.2822   -49043.548   -47515.938    4071.1855   -13147.228   -14781.431    40142.215     55.09523    31.809246    72.721994 
  686000    1041.5581   -49048.354    -47540.61    5051.9114   -15868.732   -15963.523    46987.989     55.09523    31.809246    72.721994 
  688000    1055.0872   -49027.606   -47500.278    5513.5638   -14259.357   -16756.471    47556.519     55.09523    31.809246    72.721994 
  690000     1075.397   -49004.698   -47447.971    3960.0334    -14927.02   -14037.537    40844.657     55.09523    31.809246    72.721994 
  692000    1072.8972   -49034.657   -47481.548    3725.5107   -13970.896   -17355.327    42502.755     55.09523    31.809246    72.721994 
  694000    1047.4379   -49035.686   -47519.431    3925.7531   -15438.877   -15344.464      42560.6     55.09523    31.809246    72.721994 
  696000    1070.7417   -49016.984   -47466.995     3225.332   -14484.364    -16690.59     40850.95     55.09523    31.809246    72.721994 
  698000    1071.8382   -48988.373   -47436.797     5275.027   -13527.122   -16985.714    46337.917     55.09523    31.809246    72.721994 
  700000    1074.6693   -49006.356   -47450.682     3893.365   -13170.905   -16081.883    40932.883     55.09523    31.809246    72.721994 
  702000     1094.971   -49006.688   -47421.626    6625.7614   -12787.857   -14684.002    47349.143     55.09523    31.809246    72.721994 
  704000    1085.3136   -49005.067   -47433.984      5293.17    -14596.25   -13637.585    44113.345     55.09523    31.809246    72.721994 
  706000    1077.4791   -48995.128   -47435.386    6122.5107   -13978.777   -13566.575    45912.884     55.09523    31.809246    72.721994 
  708000    1079.4502   -49004.633   -47442.038    4135.0431    -15558.61   -15025.597    42989.336     55.09523    31.809246    72.721994 
  710000     1093.167   -48971.786   -47389.334    4834.9051   -14052.464   -12475.369    41032.548     55.09523    31.809246    72.721994 
  712000    1102.2121   -48975.586   -47380.041    6237.4217   -14884.896   -11693.908    45291.069     55.09523    31.809246    72.721994 
  714000    1106.8317   -48967.586   -47365.354    5180.1811   -15142.977    -11809.84    42493.361     55.09523    31.809246    72.721994 
  716000    1093.1524   -48962.506   -47380.076    4636.9311   -15176.575   -15546.465    44633.833     55.09523    31.809246    72.721994 
  718000     1112.235   -48978.129   -47368.075     6477.999   -11940.554   -14458.526    45833.077     55.09523    31.809246    72.721994 
  720000    1101.5128   -48961.996   -47367.464    5279.1814   -12890.405   -15177.176    43905.125     55.09523    31.809246    72.721994 
  722000    1113.3344   -48956.792   -47345.147    7597.2655   -12358.955   -10662.711    45813.462     55.09523    31.809246    72.721994 
  724000    1123.6852   -48948.017   -47321.388    5814.7244   -12233.529   -15576.458     45254.16     55.09523    31.809246    72.721994 
  726000    1117.1545   -48936.237   -47319.062    5115.1631   -12597.898   -15819.345    43762.733     55.09523    31.809246    72.721994 
  728000    1118.3058   -48951.058   -47332.216    6357.0857   -14266.702   -13705.418    47043.377     55.09523    31.809246    72.721994 
  730000    1116.1742   -48948.081   -47332.325    5007.8802   -18300.556   -14833.404    48157.601     55.09523    31.809246    72.721994 
  732000    1144.3146   -48950.427   -47293.935    4181.5222   -16517.129   -16623.358    45685.054     55.09523    31.809246    72.721994 
  734000    1120.4932   -48922.298   -47300.289    6184.4629   -13093.489   -14186.027    45832.905     55.09523    31.809246    72.721994 
  736000    1128.0551   -48930.635    -47297.68    5880.8244    -13516.58   -12797.858    43956.911     55.09523    31.809246    72.721994 
  738000    1147.6114   -48924.572   -47263.308    7109.0134   -13374.124   -12054.466     46755.63     55.09523    31.809246    72.721994 
  740000    1119.9077   -48911.854   -47290.693    8471.5765   -15243.975   -11404.328    52063.032     55.09523    31.809246    72.721994 
  742000    1130.2702   -48918.509   -47282.347    6357.7053   -13021.395   -13163.972    45258.483     55.09523    31.809246    72.721994 
  744000    1154.0632   -48921.085   -47250.482     6531.339    -12538.31   -15180.555    47312.882     55.09523    31.809246    72.721994 
  746000     1135.543   -48917.283   -47273.488    7286.6526    -13944.53   -11723.602     47528.09     55.09523    31.809246    72.721994 
  748000    1146.7653   -48929.795   -47269.755    6476.0054   -11378.737   -11641.411    42448.164     55.09523    31.809246    72.721994 
  750000     1149.621   -48907.175   -47243.002     7388.165   -12167.845   -14704.554    49036.894     55.09523    31.809246    72.721994 
  752000    1152.8991   -48891.884   -47222.966    7896.9793   -12955.451   -12819.696    49466.086     55.09523    31.809246    72.721994 
  754000    1131.6903   -48866.059   -47227.842    8444.0252   -13137.351   -15139.319    53608.746     55.09523    31.809246    72.721994 
  756000    1156.9105   -48888.089   -47213.364    7284.0471   -13831.479   -13902.487    49586.107     55.09523    31.809246    72.721994 
  758000    1169.2668   -48885.799   -47193.187    7323.8765   -12096.628   -14149.814    48218.072     55.09523    31.809246    72.721994 
  760000    1157.2334   -48879.675   -47204.482    7267.5364   -14250.612   -13990.954    50044.175     55.09523    31.809246    72.721994 
  762000    1170.6782   -48885.606    -47190.95    7531.7269   -13648.647   -11642.235    47886.063     55.09523    31.809246    72.721994 
  764000    1167.3595   -48869.252   -47179.401    9326.6092   -12096.699   -7723.4262    47799.953     55.09523    31.809246    72.721994 
  766000    1178.2431   -48874.388   -47168.782      8296.21   -13325.894    -11415.71    49630.233     55.09523    31.809246    72.721994 
  768000    1179.1857     -48870.6   -47163.629    6506.6916   -12851.004   -14214.095    46585.174     55.09523    31.809246    72.721994 
  770000    1171.7827    -48882.59   -47186.336     8510.402   -12557.926   -11557.664    49646.796     55.09523    31.809246    72.721994 
  772000    1168.0431   -48864.521    -47173.68    9488.8459   -12675.502   -10830.041    51972.081     55.09523    31.809246    72.721994 
  774000    1177.8332    -48854.06   -47149.047    9049.1572     -12241.7   -11034.171    50423.342     55.09523    31.809246    72.721994 
  776000    1203.0422    -48858.04   -47116.535    7213.2776   -12434.927   -13908.052    47982.812     55.09523    31.809246    72.721994 
  778000    1194.6645    -48855.35   -47125.973    8014.9308   -13395.121   -13671.985    51111.899     55.09523    31.809246    72.721994 
  780000    1198.9441    -48834.47   -47098.898     8405.892   -11758.527   -13186.389    50162.592     55.09523    31.809246    72.721994 
  782000    1182.5494   -48847.098   -47135.258    6890.9463   -17042.404   -14928.607     52643.85     55.09523    31.809246    72.721994 
  784000    1196.2588   -48827.858   -47096.173    7347.2589    -17869.26   -11244.797    51155.834     55.09523    31.809246    72.721994 
  786000    1190.4272   -48829.327   -47106.083    8897.6326   -12731.471   -11391.314    50815.683     55.09523    31.809246    72.721994 
  788000    1202.7868   -48846.654   -47105.519      9010.52   -13442.606   -8692.3802    49166.546     55.09523    31.809246    72.721994 
  790000    1199.1394   -48819.001   -47083.145    9673.1116   -12254.761   -12186.576    53460.672     55.09523    31.809246    72.721994 
  792000    1216.9228   -48823.224   -47061.626    9663.5665   -12710.148    -13542.97    55243.818     55.09523    31.809246    72.721994 
  794000    1220.8293   -48826.797   -47059.544    9187.8259   -13492.389   -10757.872    51813.738     55.09523    31.809246    72.721994 
  796000    1214.7296   -48804.914   -47046.491    9130.1907   -13740.663   -12266.808    53398.042     55.09523    31.809246    72.721994 
  798000    1213.8372   -48816.249   -47059.117    11888.315   -9512.4054   -11466.737    56644.088     55.09523    31.809246    72.721994 
  800000    1228.1741   -48802.058   -47024.172     9521.084   -9740.2553   -12937.501    51241.009     55.09523    31.809246    72.721994 
  802000    1220.4236   -48784.543   -47017.877    8535.2272   -13631.477    -10887.85    50125.009     55.09523    31.809246    72.721994 
  804000    1219.4383     -48798.6    -47033.36    8918.0318   -12135.954   -14463.011     53353.06     55.09523    31.809246    72.721994 
  806000    1237.4185   -48780.772   -46989.504    10833.449   -12339.545   -12269.729    57109.621     55.09523    31.809246    72.721994 
  808000    1235.9559   -48797.544   -47008.394    9988.0215   -13047.345   -11200.255    54211.664     55.09523    31.809246    72.721994 
  810000    1217.2565   -48812.016   -47049.934    9621.2892   -13819.102   -10484.556    53167.526     55.09523    31.809246    72.721994 
  812000    1229.4005   -48780.378   -47000.717    11906.684   -10949.537   -10612.675    57282.263     55.09523    31.809246    72.721994 
  814000    1254.6929   -48764.898   -46948.624    10932.074   -11348.996   -12477.235    56622.454     55.09523    31.809246    72.721994 
  816000    1234.1254   -48771.786   -46985.285    10533.837   -11268.994   -12083.994    54954.497     55.09523    31.809246    72.721994 
  818000    1236.4426   -48768.728   -46978.873    11662.851   -10639.585    -8174.738    53802.876     55.09523    31.809246    72.721994 
  820000    1257.9902   -48775.709   -46954.662    10878.812    -10743.68   -10929.983      54310.1     55.09523    31.809246    72.721994 
  822000    1254.8582   -48757.045   -46940.532    11214.466   -8397.9272   -11914.827    53956.151     55.09523    31.809246    72.721994 
  824000    1250.7422   -48732.381   -46921.826    10601.845   -12396.101   -10025.853    54227.489     55.09523    31.809246    72.721994 
  826000       1259.1   -48769.759   -46947.106    11058.556    -10865.99   -12406.768    56448.426     55.09523    31.809246    72.721994 
  828000    1253.2821   -48755.682    -46941.45    10406.797   -12339.483   -11831.462    55391.336     55.09523    31.809246    72.721994 
  830000    1271.5517   -48752.359    -46911.68    11381.994    -8979.236   -12772.278    55897.495     55.09523    31.809246    72.721994 
  832000    1279.3538   -48739.641   -46887.668    12228.145   -9214.0452   -13728.526    59627.006     55.09523    31.809246    72.721994 
  834000    1275.1817   -48728.061   -46882.128    11024.441   -10838.529   -11803.872    55715.723     55.09523    31.809246    72.721994 
  836000    1262.0193   -48722.244   -46895.365    12039.536   -12306.503   -9289.3316    57714.443     55.09523    31.809246    72.721994 
  838000    1296.5639   -48720.428   -46843.542    12020.958   -9657.8681   -8844.4377     54565.18     55.09523    31.809246    72.721994 
  840000    1286.2255   -48746.436   -46884.516    12050.752   -10791.846   -10686.592    57630.694     55.09523    31.809246    72.721994 
  842000    1259.0059   -48698.929   -46876.412     11694.63   -11727.967   -13067.498    59879.353     55.09523    31.809246    72.721994 
  844000    1264.7296   -48731.413    -46900.61    10785.127   -11134.197   -11197.829    54687.405     55.09523    31.809246    72.721994 
  846000    1286.2654   -48732.704   -46870.726    11649.179   -12451.719   -11226.624    58625.879     55.09523    31.809246    72.721994 
  848000    1281.3954   -48714.447   -46859.519    12001.065   -11794.742   -10944.003    58741.939     55.09523    31.809246    72.721994 
  850000    1288.9487   -48677.445   -46811.583    13672.673   -10825.495   -9122.5577    60966.072     55.09523    31.809246    72.721994 
  852000    1301.3689   -48683.935   -46800.093    12139.362   -12422.273    -8214.149    57054.508     55.09523    31.809246    72.721994 
  854000    1292.0891   -48694.032   -46823.624    10825.902    -9865.825   -9898.6739    52242.206     55.09523    31.809246    72.721994 
  856000    1314.5002   -48705.058   -46802.209    13701.355   -9707.9526   -8380.5025    59192.519     55.09523    31.809246    72.721994 
  858000    1299.8594   -48672.849   -46791.192     14879.67    -6068.216    -13365.38    64072.607     55.09523    31.809246    72.721994 
  860000    1294.6377   -48679.992   -46805.894    15422.728   -11293.303   -5028.5424     62590.03     55.09523    31.809246    72.721994 
  862000    1300.6427   -48696.042   -46813.252    13496.558   -9125.0807    -10664.99    60279.744     55.09523    31.809246    72.721994 
  864000    1303.0561   -48681.474    -46795.19    14553.622   -9743.6218   -11627.592     65032.08     55.09523    31.809246    72.721994 
  866000    1310.7831   -48677.423   -46779.953    12872.957   -9051.7966   -9828.1519    57498.818     55.09523    31.809246    72.721994 
  868000    1327.8156   -48661.131   -46739.006    13929.912   -8975.5776   -8666.6309    59431.944     55.09523    31.809246    72.721994 
  870000    1333.4587    -48651.34   -46721.046    14219.193   -8366.1246    -8498.375    59522.078     55.09523    31.809246    72.721994 
  872000    1323.8266   -48657.428   -46741.077    14508.017   -8104.3833   -9430.8074     61059.24     55.09523    31.809246    72.721994 
  874000    1325.0673   -48659.153   -46741.007    14345.944   -6169.4158   -9264.8369    58472.086     55.09523    31.809246    72.721994 
  876000    1332.0784   -48670.309   -46742.013    14414.573   -10255.461   -7654.7376    61153.918     55.09523    31.809246    72.721994 
  878000    1325.6237   -48672.623   -46753.671    13516.144   -6858.3273   -9100.9123    56507.671     55.09523    31.809246    72.721994 
  880000    1337.0839   -48656.395   -46720.854    14293.174   -11069.319   -7045.6466    60994.488     55.09523    31.809246    72.721994 
  882000    1343.8577   -48632.011   -46686.663    13922.202   -10334.629   -9838.7663        61940     55.09523    31.809246    72.721994 
  884000    1348.8983   -48645.942   -46693.298    13074.744   -11589.867   -8810.3015      59624.4     55.09523    31.809246    72.721994 
  886000    1343.9143   -48620.374   -46674.944    14564.879   -9798.3336   -9256.5856    62749.555     55.09523    31.809246    72.721994 
  888000    1345.1726     -48604.8   -46657.549    14969.164   -8106.6718    -8519.672    61533.836     55.09523    31.809246    72.721994 
  890000    1333.0042   -48637.981   -46708.345    16123.321   -7122.9833   -7746.8787    63239.825     55.09523    31.809246    72.721994 
  892000    1341.1886   -48626.604    -46685.12    14823.569   -7788.3766   -7333.1786    59592.263     55.09523    31.809246    72.721994 
  894000    1380.8096   -48623.536   -46624.698    16336.404   -10626.783   -8142.8462    67778.841     55.09523    31.809246    72.721994 
  896000    1360.1688    -48621.71   -46652.751    15117.591   -8298.8393   -7817.9943    61469.607     55.09523    31.809246    72.721994 
  898000    1338.6235   -48615.588   -46677.818    15659.533   -10988.016   -6969.4435    64936.058     55.09523    31.809246    72.721994 
  900000    1362.3135   -48600.239   -46628.175    13989.005   -10702.925   -8390.8088    61060.749     55.09523    31.809246    72.721994 
  902000    1370.8485   -48603.517   -46619.098    17484.419   -7085.6774   -6576.6932    66115.629     55.09523    31.809246    72.721994 
  904000    1389.1702    -48591.61   -46580.669    16931.023   -9338.6742   -8901.3676    69033.112     55.09523    31.809246    72.721994 
  906000    1366.2024   -48589.842   -46612.148    14471.918   -10415.961   -8986.7352    62818.452     55.09523    31.809246    72.721994 
  908000     1365.489   -48616.943   -46640.283    15274.104   -8487.7327    -6149.805     60459.85     55.09523    31.809246    72.721994 
  910000    1375.8155   -48595.055   -46603.446    14658.356   -10413.505   -12937.204    67325.779     55.09523    31.809246    72.721994 
  912000    1366.1715   -48580.916   -46603.267    14676.079   -10159.712    -7915.038    62102.987     55.09523    31.809246    72.721994 
  914000    1381.1168   -48588.331   -46589.048    16053.488   -5944.4065   -7568.3356    61673.207     55.09523    31.809246    72.721994 
  916000    1373.7206   -48560.029   -46571.453    17372.712   -8687.3178   -6587.1745    67392.629     55.09523    31.809246    72.721994 
  918000    1387.5228   -48600.969   -46592.413    15286.306   -7604.3194   -9727.5373    63190.774     55.09523    31.809246    72.721994 
  920000    1398.9881   -48593.896   -46568.743    17524.269   -5477.0091   -7897.9962    65947.812     55.09523    31.809246    72.721994 
  922000    1376.8542   -48579.245   -46586.132    17097.695   -6936.6309   -8229.7938     66459.51     55.09523    31.809246    72.721994 
  924000    1394.1193   -48557.374   -46539.268    17882.178   -4892.7799   -9075.9867    67615.302     55.09523    31.809246    72.721994 
  926000    1397.6443   -48553.412   -46530.204     16099.14   -6528.7509   -11873.398    66699.568     55.09523    31.809246    72.721994 
  928000    1411.1389   -48574.622    -46531.88    15966.003   -7530.4989   -7873.0186    63301.526     55.09523    31.809246    72.721994 
  930000    1397.9779   -48530.425   -46506.734    16745.709   -7333.9661   -10289.331    67860.424     55.09523    31.809246    72.721994 
  932000    1408.4912   -48557.108   -46518.198    17566.718   -7423.3588   -8393.6543    68517.166     55.09523    31.809246    72.721994 
  934000    1412.8371   -48529.868   -46484.667    16911.476   -8431.7924   -6838.0248    66004.246     55.09523    31.809246    72.721994 
  936000    1401.4564   -48563.198   -46534.472    17823.198   -5594.2441   -7763.0304    66826.868     55.09523    31.809246    72.721994 
  938000    1416.2537    -48556.51   -46506.363    17393.575   -4995.8303   -8739.0541    65915.608     55.09523    31.809246    72.721994 
  940000    1430.4313   -48540.344   -46469.674    16461.716   -9395.0376   -7964.2876    66744.474     55.09523    31.809246    72.721994 
  942000    1425.1527   -48521.072   -46458.043    18846.733   -6180.2558   -6360.4896    69080.945     55.09523    31.809246    72.721994 
  944000    1429.4359   -48529.746   -46460.517    16846.621   -8431.1118   -8308.1287    67279.104     55.09523    31.809246    72.721994 
  946000    1428.7609    -48551.98   -46483.729    16306.048   -6116.7671   -8242.3166    63277.229     55.09523    31.809246    72.721994 
  948000    1422.0603   -48525.576   -46467.024    14910.664   -10265.333   -10242.718    65240.043     55.09523    31.809246    72.721994 
  950000    1431.9076   -48511.673   -46438.866    18610.513    -7594.366    -7009.031    70434.936     55.09523    31.809246    72.721994 
  952000    1433.8375   -48516.722   -46441.122     18090.22   -8433.0016   -5281.3861    67985.048     55.09523    31.809246    72.721994 
  954000    1433.7367    -48539.23   -46463.775    18259.588   -9926.5229   -4468.8476    69174.135     55.09523    31.809246    72.721994 
  956000    1435.7185   -48528.802   -46450.478    16734.587   -6870.4029   -7568.5225    64642.686     55.09523    31.809246    72.721994 
  958000    1451.0815   -48493.677   -46393.114    19922.657   -6464.9149    -5478.148    71711.034     55.09523    31.809246    72.721994 
  960000    1451.3751   -48478.646   -46377.658    18283.161   -8378.4641   -7541.8086    70769.755     55.09523    31.809246    72.721994 
  962000    1444.2236   -48496.576   -46405.941    17924.745   -9381.5317   -7767.6404    70923.408     55.09523    31.809246    72.721994 
  964000    1443.3949   -48496.582   -46407.146    17705.815   -6188.5611   -10642.038    69948.043     55.09523    31.809246    72.721994 
  966000    1464.1481   -48470.843   -46351.366    18173.887   -6990.5027   -5399.5519    66911.717     55.09523    31.809246    72.721994 
  968000     1429.713   -48480.282   -46410.652     19289.04   -10988.382   -6869.6411    75725.143     55.09523    31.809246    72.721994 
  970000    1465.2617   -48473.304   -46352.214    20490.158   -2672.3205   -7196.7743    71339.568     55.09523    31.809246    72.721994 
  972000    1477.6739    -48478.68   -46339.623    20473.178   -6501.6496   -8347.0678    76268.251     55.09523    31.809246    72.721994 
  974000    1443.5688   -48471.244   -46381.557    20002.164    -5818.334   -5990.6677    71815.495     55.09523    31.809246    72.721994 
  976000    1479.5067    -48465.13   -46323.419    20455.197   -4486.1831    -6518.232    72370.007     55.09523    31.809246    72.721994 
  978000    1472.4293   -48455.313   -46323.848    17023.452   -7340.1998   -9237.8238     67648.38     55.09523    31.809246    72.721994 
  980000    1480.2683   -48468.496   -46325.683    18541.384   -5754.9846   -5594.2996    66973.436     55.09523    31.809246    72.721994 
  982000    1464.9235   -48479.229   -46358.629    18265.622   -8605.6144   -9396.9702     72799.45     55.09523    31.809246    72.721994 
  984000    1478.0235   -48433.444    -46293.88    18762.941   -8828.7242   -7008.4598    72126.008     55.09523    31.809246    72.721994 
  986000    1485.8666   -48440.156   -46289.238    21098.697    -5817.418   -7142.7714    76256.281     55.09523    31.809246    72.721994 
  988000    1487.4845   -48452.252   -46298.992    22078.478   -4778.4113   -3548.2971    74562.143     55.09523    31.809246    72.721994 
  990000    1478.8198   -48474.447   -46333.731    20120.056    -6855.244   -7257.0878    74472.499     55.09523    31.809246    72.721994 
  992000    1476.7066   -48457.949   -46320.291    19357.394   -7846.0903   -4491.4838    70409.756     55.09523    31.809246    72.721994 
  994000    1492.2416   -48419.898   -46259.753     22082.08    -1750.397   -8465.3221    76461.958     55.09523    31.809246    72.721994 
  996000    1510.7691   -48429.342   -46242.376    21479.619   -5029.4903   -4123.2744    73591.621     55.09523    31.809246    72.721994 
  998000    1502.3576   -48425.739    -46250.95    20251.369   -7214.1321    -5942.692    73910.932     55.09523    31.809246    72.721994 
 1000000    1497.5326   -48394.104   -46226.299    21125.152   -5593.2396   -6970.7488    75939.445     55.09523    31.809246    72.721994 
 1000049    1494.1403   -48385.886   -46222.992    20088.006   -8368.7581   -7035.0885    75667.866     55.09523    31.809246    72.721994 
Loop time of 967.405 on 72 procs for 1000000 steps with 11200 atoms

Performance: 17.862 ns/day, 1.344 hours/ns, 1033.693 timesteps/s
100.0% CPU use with 72 MPI tasks x no OpenMP threads

MPI task timing breakdown:
Section |  min time  |  avg time  |  max time  |%varavg| %total
---------------------------------------------------------------
Pair    | 594.67     | 707.24     | 823.01     | 244.5 | 73.11
Neigh   | 0.22997    | 0.27177    | 0.36773    |   5.3 |  0.03
Comm    | 84.352     | 198.63     | 308.48     | 452.7 | 20.53
Output  | 0.17496    | 0.17611    | 0.17842    |   0.1 |  0.02
Modify  | 35.67      | 42.642     | 49.359     |  48.6 |  4.41
Other   |            | 18.45      |            |       |  1.91

Nlocal:    155.556 ave 179 max 135 min
Histogram: 15 1 0 13 9 14 6 6 1 7
Nghost:    822.472 ave 894 max 774 min
Histogram: 10 9 10 5 11 12 5 3 4 3
Neighs:    0 ave 0 max 0 min
Histogram: 72 0 0 0 0 0 0 0 0 0
FullNghs:  7244.14 ave 8393 max 6242 min
Histogram: 12 4 0 13 10 14 5 5 3 6

Total # of neighbors = 521578
Ave neighs/atom = 46.5695
Neighbor list builds = 709
Dangerous builds = 0
unfix		NVT
write_restart	restart.NVT.*

# ------------ Annealing -----------------------------------------
fix             equil all langevin ${Thi} $T 0.05 ${langSEED} tally yes zero yes
fix             equil all langevin 1500 $T 0.05 ${langSEED} tally yes zero yes
fix             equil all langevin 1500 500 0.05 ${langSEED} tally yes zero yes
fix             equil all langevin 1500 500 0.05 20612 tally yes zero yes
WARNING: Energy tally does not account for 'zero yes' (../fix_langevin.cpp:181)
fix             NVE all nve
run             ${NRUNanneal}
run             500000
Per MPI rank memory allocation (min/avg/max) = 4.343 | 4.402 | 4.714 Mbytes
Step Temp PotEng TotEng Press Pxx Pyy Pzz Lx Ly Lz 
 1000049    1494.1403   -48385.886   -46222.992    20088.006   -8368.7581   -7035.0885    75667.866     55.09523    31.809246    72.721994 
 1002000    1490.1639   -48436.812   -46279.674    20836.843   -4333.2649    -5384.427     72228.22     55.09523    31.809246    72.721994 
 1004000    1481.3406   -48413.955    -46269.59    22152.691   -4258.6785   -5871.7902    76588.542     55.09523    31.809246    72.721994 
 1006000    1493.9754   -48434.135    -46271.48    19048.314   -4512.6936   -9152.7606    70810.397     55.09523    31.809246    72.721994 
 1008000    1489.8918   -48438.694    -46281.95    22262.229   -3972.6493   -8004.5194    78763.857     55.09523    31.809246    72.721994 
 1010000    1486.6177   -48449.684   -46297.679    18380.448   -8041.0826   -7668.8993    70851.327     55.09523    31.809246    72.721994 
 1012000    1464.9702   -48424.681   -46304.013    19712.408   -4997.5858   -5035.4798    69170.289     55.09523    31.809246    72.721994 
 1014000    1487.5701   -48472.812   -46319.429    20011.762   -8969.4095    -3574.789    72579.483     55.09523    31.809246    72.721994 
 1016000    1472.0266    -48474.22   -46343.337    18286.479   -7791.9289   -7584.4888    70235.854     55.09523    31.809246    72.721994 
 1018000    1462.2676   -48445.302   -46328.546     19078.72   -6689.7052   -6715.1717    70641.038     55.09523    31.809246    72.721994 
 1020000    1454.5923   -48467.974   -46362.329    17584.749   -3089.4008   -10007.777    65851.426     55.09523    31.809246    72.721994 
 1022000    1463.7309   -48485.272   -46366.398     17992.81   -4667.0117   -8173.3183    66818.759     55.09523    31.809246    72.721994 
 1024000    1460.3365   -48486.546   -46372.585    17019.672   -5401.8176   -8080.9735    64541.806     55.09523    31.809246    72.721994 
 1026000    1452.9282   -48478.045   -46374.809    17896.853   -9607.3373   -7057.8454    70355.742     55.09523    31.809246    72.721994 
 1028000     1438.661   -48498.445   -46415.862    18220.228   -6362.9085   -7413.8512    68437.444     55.09523    31.809246    72.721994 
 1030000    1443.1715   -48505.453    -46416.34    19740.808   -2647.9298   -9119.7898    70990.145     55.09523    31.809246    72.721994 
 1032000    1461.8585   -48510.436   -46394.273    17681.454   -7644.1545   -7849.8848    68538.401     55.09523    31.809246    72.721994 
 1034000    1423.3587   -48498.359   -46437.927     18430.28   -6321.7976   -5129.4727    66742.109     55.09523    31.809246    72.721994 
 1036000    1435.1098    -48498.02   -46420.577    18512.192   -6040.6807    -8660.295    70237.551     55.09523    31.809246    72.721994 
 1038000     1434.139   -48536.956   -46460.919    16625.179   -8340.6394   -9296.6937    67512.871     55.09523    31.809246    72.721994 
 1040000    1424.8593   -48513.332   -46450.728    17269.409   -5819.8402   -7661.0984    65289.167     55.09523    31.809246    72.721994 
 1042000     1414.552   -48525.511   -46477.827    16413.721   -9017.4902   -6821.1669     65079.82     55.09523    31.809246    72.721994 
[...]
 1864000    503.50535    -49873.27   -49144.403    88.456301   -4.5826647    1544.3412   -1274.3896    54.855086    31.607063    73.245078 
 1866000    495.94587   -49867.309   -49149.385    243.01218   -999.23558   -390.69958    2118.9717    54.851523    31.633244    73.202502 
 1868000    500.96857    -49870.98   -49145.785   -386.48429   -70.605226   -809.55125    -279.2964     54.82497    31.652153     73.19484 
 1870000    496.04337   -49872.824   -49154.759   -670.74914   -654.94369   -1260.0233   -97.280434    54.788314    31.648173    73.239651 
 1872000    496.37876   -49874.721    -49156.17   -22.577042    2815.6076   -1870.1734   -1013.1653    54.767892    31.664665    73.257236 
 1874000    498.06248   -49884.429   -49163.442    883.98753    412.89947    415.69151    1823.3716    54.815317    31.677972    73.187506 
 1876000    494.61471   -49868.262   -49152.265    674.68654    1409.1746   -937.95871    1552.8438    54.737778    31.698728     73.18931 
 1878000    499.18511    -49856.46   -49133.847   -915.38738   -575.16049   -1968.2539   -202.74774    54.772161    31.670345    73.269659 
 1880000    499.07825   -49862.972   -49140.514    1047.3561    1803.8039    1433.2552   -94.990921    54.789388    31.619109    73.273641 
 1882000    501.19301   -49874.769    -49149.25    71.941515     2160.471     461.5046    -2406.151    54.781087    31.645956     73.26123 
 1884000    502.16745   -49880.298   -49153.368    1475.1206     934.1795   -817.74984     4308.932    54.773382    31.676843    73.173027 
 1886000    504.10695   -49865.386   -49135.648   -1168.9333   -710.79433   -617.38167    -2178.624    54.901982    31.594291    73.275703 
 1888000    501.79808   -49867.136   -49140.741   -950.47127    -639.6456   -712.43003   -1499.3382     54.81561    31.634026    73.265475 
 1890000     499.0798    -49859.89    -49137.43    904.01965    513.05533    2263.5257   -64.522118    54.821661    31.633607    73.219756 
 1892000    501.85368   -49874.032   -49147.556   -226.07117   -223.36531     259.1284    -713.9766    54.841228    31.633137    73.260544 
 1894000    502.01511   -49876.344   -49149.635   -860.95502   -1893.5811   -378.45934   -310.82459    54.834199    31.605754    73.315583 
 1896000    508.20041   -49888.942   -49153.279    313.45788    2014.4805    718.72076   -1792.8276    54.809466    31.633888    73.259389 
 1898000    495.89647    -49880.46   -49162.608   -976.59761    -1171.102   -956.14079   -802.55004    54.881995    31.635969    73.213481 
 1900000    499.25397    -49865.03   -49142.317    548.72521    198.38459    372.33678    1075.4543    54.736695    31.699283    73.212364 
 1900049    504.81798   -49872.157   -49141.391    1507.8961    1271.4798    674.61592    2577.5927    54.733051    31.698995    73.199006 
Loop time of 187.981 on 72 procs for 200000 steps with 11200 atoms

Performance: 18.385 ns/day, 1.305 hours/ns, 1063.935 timesteps/s
100.0% CPU use with 72 MPI tasks x no OpenMP threads

MPI task timing breakdown:
Section |  min time  |  avg time  |  max time  |%varavg| %total
---------------------------------------------------------------
Pair    | 108.85     | 130.3      | 153.07     | 109.5 | 69.32
Neigh   | 0.00028617 | 0.00035142 | 0.00049261 |   0.0 |  0.00
Comm    | 15.803     | 38.111     | 59.288     | 199.3 | 20.27
Output  | 0.060031   | 0.060209   | 0.060681   |   0.0 |  0.03
Modify  | 16.265     | 17.305     | 18.325     |  12.4 |  9.21
Other   |            | 2.206      |            |       |  1.17

Nlocal:    155.556 ave 180 max 135 min
Histogram: 16 0 0 8 16 2 14 8 0 8
Nghost:    849.542 ave 932 max 790 min
Histogram: 8 14 8 9 3 10 10 2 1 7
Neighs:    0 ave 0 max 0 min
Histogram: 72 0 0 0 0 0 0 0 0 0
FullNghs:  7303.14 ave 8468 max 6323 min
Histogram: 16 0 0 12 12 11 5 8 0 8

Total # of neighbors = 525826
Ave neighs/atom = 46.9487
Neighbor list builds = 1
Dangerous builds = 0
unfix           NPT
write_restart   restart.NPT.300.*

# -------------- NVE Equilibration ----------------------------------
fix             NVE all nve
dump            snapNVEPxyz all custom ${snapprint} snap.NVE.pressure.lammpstrj id type x y z
dump            snapNVEPxyz all custom 10000 snap.NVE.pressure.lammpstrj id type x y z
run             ${NRUNNVE}
run             200000
Per MPI rank memory allocation (min/avg/max) = 5.225 | 5.3 | 5.596 Mbytes
Step Temp PotEng TotEng Press Pxx Pyy Pzz Lx Ly Lz 
 1900049    504.81798   -49872.157   -49141.391    1507.8961    1271.4798    674.61592    2577.5927    54.733051    31.698995    73.199006 
 1902000    498.13231   -49862.476   -49141.388     1794.272    3133.2718   -405.66094    2655.2051    54.733051    31.698995    73.199006 
 1904000    499.33801   -49864.221   -49141.387    1459.1992     1418.882    447.19473    2511.5209    54.733051    31.698995    73.199006 
 1906000    502.12596   -49868.258   -49141.389    2258.3394    3120.2817    1281.2725     2373.464    54.733051    31.698995    73.199006 
 1908000    494.33041   -49856.973   -49141.388   -353.78771    2208.4091   -4260.4273    990.65502    54.733051    31.698995    73.199006 
 1910000    500.67561   -49866.158   -49141.388   -127.76264       586.31   -2558.9211    1589.3232    54.733051    31.698995    73.199006 
 1912000    502.21726   -49868.388   -49141.386    1342.5351    724.55673   -685.09831    3988.1467    54.733051    31.698995    73.199006 
 1914000    501.79763   -49867.781   -49141.387    453.13997    1326.4169   -494.79817    527.80117    54.733051    31.698995    73.199006 
 1916000    503.98778   -49870.954   -49141.389    231.62401    446.74332   -1025.3604    1273.4891    54.733051    31.698995    73.199006 
 1918000    498.53937   -49863.064   -49141.386   -604.99784   -504.29444   -3460.6047    2149.9057    54.733051    31.698995    73.199006 
 1920000    497.64278   -49861.765   -49141.385    625.73813    1249.4426   -287.55037    915.32218    54.733051    31.698995    73.199006 
 1922000    501.58185   -49867.468   -49141.386   -313.95081   -378.77039   -1333.7453    770.66326    54.733051    31.698995    73.199006 
 1924000    508.03992   -49876.815   -49141.384    1472.2548    760.45257    2294.9242    1361.3876    54.733051    31.698995    73.199006 
 1926000    505.43658   -49873.047   -49141.385   -433.89891   -1053.3805   -739.80344    491.48722    54.733051    31.698995    73.199006 
 1928000     499.2748   -49864.128   -49141.386   -1020.2345   -2475.2624   -3122.0758    2536.6348    54.733051    31.698995    73.199006 
 1930000    501.89379   -49867.919   -49141.386   -1015.7042    274.18093   -2133.6789   -1187.6147    54.733051    31.698995    73.199006 
 1932000    499.45978   -49864.394   -49141.384    1008.7889     152.3413     884.9634    1989.0619    54.733051    31.698995    73.199006 
 1934000    501.69255   -49867.626   -49141.384   -289.61913   -143.86748    521.86777   -1246.8577    54.733051    31.698995    73.199006 
 1936000    504.77021   -49872.081   -49141.383    921.70043    1928.0083    947.78178   -110.68881    54.733051    31.698995    73.199006 
 1938000     498.3864   -49862.839   -49141.382    -181.6226   -21.610865     -1151.41    628.15307    54.733051    31.698995    73.199006 
 1940000    497.54189   -49861.616   -49141.383    698.12263    1244.8973    -508.3741    1357.8447    54.733051    31.698995    73.199006 
 1942000    499.59295   -49864.587   -49141.384   -115.81834    -695.3962   -2413.4745    2761.4157    54.733051    31.698995    73.199006 
 1944000    502.65134   -49869.016   -49141.386    385.44194    1885.0642   -242.84874    -485.8896    54.733051    31.698995    73.199006 
 1946000    504.07649   -49871.079   -49141.386    152.54026    437.65368   -881.70288    901.66998    54.733051    31.698995    73.199006 
 1948000    504.65108   -49871.911   -49141.386    379.18983    1419.0378   -828.76944     547.3011    54.733051    31.698995    73.199006 
 1950000    497.63585   -49861.754   -49141.384    911.11706    187.64168     1055.124    1490.5855    54.733051    31.698995    73.199006 
 1952000    504.10181   -49871.115   -49141.385    710.12916    61.449789    1097.8977    971.03997    54.733051    31.698995    73.199006 
 1954000    498.85017   -49863.514   -49141.386   -35.979157   -1125.6902   -887.76382    1905.5166    54.733051    31.698995    73.199006 
 1956000     501.4692   -49867.303   -49141.384   -62.650135   -612.43045   -1198.2692    1622.7492    54.733051    31.698995    73.199006 
 1958000    499.31563   -49864.185   -49141.384    1019.7514    3198.3508    1124.9509   -1264.0474    54.733051    31.698995    73.199006 
 1960000     497.4976   -49861.553   -49141.383    836.43751   -995.31515    966.10573    2538.5219    54.733051    31.698995    73.199006 
 1962000    497.59647   -49861.696   -49141.383    25.822418   -1767.1343    1476.9544    367.64717    54.733051    31.698995    73.199006 
 1964000    504.76033   -49872.066   -49141.383    460.32354    1144.6632    -2259.648    2495.9555    54.733051    31.698995    73.199006 
 1966000    502.71866   -49869.113   -49141.385    942.11957    3455.0661   -1711.9729    1083.2655    54.733051    31.698995    73.199006 
 1968000    502.23121   -49868.406   -49141.384    707.03891    211.44402   -924.16016    2833.8329    54.733051    31.698995    73.199006 
 1970000    499.61252   -49864.615   -49141.383    1305.2764    2679.0841    1296.4155   -59.670538    54.733051    31.698995    73.199006 
 1972000     500.0951   -49865.315   -49141.385    1027.9226    1612.3171      286.249    1185.2017    54.733051    31.698995    73.199006 
 1974000    502.26913   -49868.462   -49141.385    278.19615   -853.40432   -1109.6744    2797.6672    54.733051    31.698995    73.199006 
 1976000    500.39221   -49865.744   -49141.384   -329.55929   -370.62921   -1649.7998    1031.7512    54.733051    31.698995    73.199006 
 1978000    501.17632    -49866.88   -49141.385    1313.6675    2525.2955   -171.09772    1586.8046    54.733051    31.698995    73.199006 
 1980000    503.52296   -49870.275   -49141.383    1681.1518    955.14713    2286.1269    1802.1814    54.733051    31.698995    73.199006 
 1982000    502.38943   -49868.633   -49141.382    585.83326   -1596.9824    696.57551    2657.9067    54.733051    31.698995    73.199006 
 1984000     505.4909   -49873.126   -49141.385    1280.4426    486.81463       1652.6    1701.9133    54.733051    31.698995    73.199006 
 1986000    506.21007   -49874.167   -49141.385    973.97321    1990.4132    31.127414      900.379    54.733051    31.698995    73.199006 
 1988000     499.2698   -49864.119   -49141.384    1774.9936    3516.6945    216.13348    1592.1528    54.733051    31.698995    73.199006 
 1990000    499.03508   -49863.779   -49141.384    310.33135    460.70135   -2514.6277    2984.9204    54.733051    31.698995    73.199006 
 1992000    496.51847   -49860.136   -49141.384    1200.3316     120.9095     244.8461    3235.2393    54.733051    31.698995    73.199006 
 1994000    502.38068   -49868.621   -49141.383   -132.96196    455.82301   -974.33315    119.62426    54.733051    31.698995    73.199006 
 1996000     501.1317   -49866.814   -49141.383    129.50572    524.03816   -149.69945    14.178442    54.733051    31.698995    73.199006 
 1998000    506.40722   -49874.448   -49141.381    968.56556    604.20259   -419.40231    2720.8964    54.733051    31.698995    73.199006 
 2000000    506.81828   -49875.045   -49141.383    968.16238    1661.4091   -813.83184    2056.9099    54.733051    31.698995    73.199006 
 2002000    501.58866   -49867.474   -49141.382    603.87003    1233.7412   -551.26827    1129.1371    54.733051    31.698995    73.199006 
 2004000    501.94795   -49867.995   -49141.383    1064.3619    1651.9707    2037.3388   -496.22395    54.733051    31.698995    73.199006 
 2006000    501.14731   -49866.835   -49141.382    -48.82748    -261.1945    -1594.212    1708.9241    54.733051    31.698995    73.199006 
 2008000     501.0742   -49866.731   -49141.384    703.34826    178.27375   -361.99532    2293.7663    54.733051    31.698995    73.199006 
 2010000    499.76391   -49864.837   -49141.387    496.95235    1465.1744    602.29379   -576.61115    54.733051    31.698995    73.199006 
 2012000    497.98229   -49862.259   -49141.388    121.47863    326.14263   -3553.7556    3592.0488    54.733051    31.698995    73.199006 
 2014000    502.21639   -49868.388   -49141.388    1077.8365      85.3547    2583.0449    565.10989    54.733051    31.698995    73.199006 
 2016000    497.27434   -49861.233   -49141.387   -106.69471   -1508.9012    890.58522    298.23185    54.733051    31.698995    73.199006 
 2018000    502.63372   -49868.991   -49141.386    18.857158    493.00932   -1707.2948    1270.8569    54.733051    31.698995    73.199006 
 2020000    499.79545   -49864.884   -49141.388    774.07441    897.16955    -87.66576    1512.7195    54.733051    31.698995    73.199006 
 2022000     499.4838    -49864.43   -49141.386    87.362978    55.999003   -151.30329    357.39322    54.733051    31.698995    73.199006 
 2024000    503.04377   -49869.585   -49141.386    1763.0687    1490.3704    977.55324    2821.2824    54.733051    31.698995    73.199006 
 2026000    506.68118    -49874.85   -49141.387    1256.2184     3065.986   -384.74223    1087.4114    54.733051    31.698995    73.199006 
 2028000    502.76787   -49869.183   -49141.384    1751.7322    2383.0871   -379.75506    3251.8646    54.733051    31.698995    73.199006 
 2030000    503.50519   -49870.251   -49141.384   -244.74973   -392.67349   -510.64595    169.07026    54.733051    31.698995    73.199006 
 2032000    500.38916   -49865.737   -49141.381    537.10142     1390.415    -2198.698    2419.5873    54.733051    31.698995    73.199006 
 2034000    506.89458   -49875.156   -49141.384    794.97738    544.93489   -853.97016    2693.9674    54.733051    31.698995    73.199006 
 2036000     506.4959   -49874.578   -49141.383    259.85582    1105.9153   -1777.9288    1451.5809    54.733051    31.698995    73.199006 
 2038000    499.89529   -49865.021   -49141.381    920.34337    2049.9321   -2282.8886    2993.9865    54.733051    31.698995    73.199006 
 2040000    501.19513   -49866.903   -49141.381     146.4597    1011.1566   -1153.0939    581.31645    54.733051    31.698995    73.199006 
 2042000    500.89392   -49866.467    -49141.38    920.56302    68.692013   -777.52221    3470.5193    54.733051    31.698995    73.199006 
 2044000    502.07996   -49868.184   -49141.381    1219.9865    3864.8449    488.25966   -693.14492    54.733051    31.698995    73.199006 
 2046000    502.54946   -49868.863    -49141.38    1350.4283    2922.9397   -979.36223    2107.7075    54.733051    31.698995    73.199006 
 2048000    503.80901   -49870.688   -49141.382   -73.665047    1401.6624   -2746.6266    1123.9691    54.733051    31.698995    73.199006 
 2050000    501.08795   -49866.748   -49141.381    1392.2746    2972.7415   -1316.3944    2520.4768    54.733051    31.698995    73.199006 
 2052000    500.65444   -49866.121   -49141.382   -655.17272   -963.56163   -371.51502   -630.44153    54.733051    31.698995    73.199006 
 2054000    501.74801   -49867.707   -49141.384    920.50772   -6.6937954   -509.96535    3278.1823    54.733051    31.698995    73.199006 
 2056000    503.12257   -49869.697   -49141.385    994.52298    366.50612    416.32301    2200.7398    54.733051    31.698995    73.199006 
 2058000    502.40466   -49868.655   -49141.382    428.10278    -1400.366    1273.1047    1411.5696    54.733051    31.698995    73.199006 
 2060000    502.51815   -49868.822   -49141.384    769.78392    805.59668    465.32702     1038.428    54.733051    31.698995    73.199006 
 2062000    502.46333   -49868.742   -49141.384    442.67861    386.55832     -479.797    1421.2745    54.733051    31.698995    73.199006 
 2064000    501.74136   -49867.697   -49141.384    770.86596    1955.7862   -1671.6146    2028.4262    54.733051    31.698995    73.199006 
 2066000    504.25258    -49871.33   -49141.382    1451.3433    3352.8471   -399.09175    1400.2747    54.733051    31.698995    73.199006 
 2068000    497.92466    -49862.17   -49141.382   -108.60801   -15.689369   -1633.2658    1323.1312    54.733051    31.698995    73.199006 
 2070000    499.17306   -49863.976   -49141.381    1303.4668    359.60276   -579.24115    4130.0387    54.733051    31.698995    73.199006 
 2072000    501.69074   -49867.619    -49141.38     242.4044    411.79648   -1806.1874    2121.6041    54.733051    31.698995    73.199006 
 2074000    501.19192   -49866.898    -49141.38    1038.5723    1545.8345    401.75603    1168.1263    54.733051    31.698995    73.199006 
 2076000    499.62044   -49864.623    -49141.38    348.67699    425.26012    -856.9319    1477.7027    54.733051    31.698995    73.199006 
 2078000    506.42584   -49874.475   -49141.381     844.1289    707.40468   -1364.0778    3189.0598    54.733051    31.698995    73.199006 
 2080000    496.22439   -49859.706   -49141.379    164.09507    1977.3668   -2668.3707    1183.2892    54.733051    31.698995    73.199006 
 2082000    499.32619   -49864.197    -49141.38    365.33466     1529.876   -2167.0498    1733.1777    54.733051    31.698995    73.199006 
 2084000    505.19014   -49872.688   -49141.383    486.08924    2763.5412    -1278.351   -26.922581    54.733051    31.698995    73.199006 
 2086000    504.07354    -49871.07   -49141.381    201.79965    2325.7567   -1939.4229    219.06512    54.733051    31.698995    73.199006 
 2088000     496.5039    -49860.11   -49141.379    607.39428    40.348487   -1098.9303    2880.7646    54.733051    31.698995    73.199006 
 2090000    504.74187   -49872.039   -49141.382    1242.4083    1371.7019      -123.42     2478.943    54.733051    31.698995    73.199006 
 2092000    500.68468   -49866.165   -49141.382    1315.0406    2447.6478    756.14988    741.32416    54.733051    31.698995    73.199006 
 2094000    503.68922   -49870.514   -49141.382    900.74701    280.30192    643.12547    1778.8136    54.733051    31.698995    73.199006 
 2096000     504.8471   -49872.189    -49141.38    721.89379    2409.0827    16.561436   -259.96279    54.733051    31.698995    73.199006 
 2098000    500.85619   -49866.411    -49141.38    628.90768    1318.6054   -71.133121    639.25076    54.733051    31.698995    73.199006 
 2100000    499.39115   -49864.288   -49141.377    1435.3614    1891.3465    81.797386    2332.9402    54.733051    31.698995    73.199006 
 2100049    510.32057   -49880.112    -49141.38    988.34013    1198.9118   -930.00411    2696.1127    54.733051    31.698995    73.199006 
Loop time of 175.511 on 72 procs for 200000 steps with 11200 atoms

Performance: 19.691 ns/day, 1.219 hours/ns, 1139.528 timesteps/s
100.0% CPU use with 72 MPI tasks x no OpenMP threads

MPI task timing breakdown:
Section |  min time  |  avg time  |  max time  |%varavg| %total
---------------------------------------------------------------
Pair    | 108.95     | 129.97     | 152.8      | 108.2 | 74.05
Neigh   | 0.00029318 | 0.00035459 | 0.00049394 |   0.0 |  0.00
Comm    | 15.419     | 37.722     | 58.343     | 197.4 | 21.49
Output  | 0.086467   | 0.087261   | 0.088274   |   0.1 |  0.05
Modify  | 0.3751     | 0.44009    | 0.54523    |   6.1 |  0.25
Other   |            | 7.291      |            |       |  4.15

Nlocal:    155.556 ave 180 max 135 min
Histogram: 16 0 0 10 14 1 15 8 0 8
Nghost:    850.014 ave 939 max 790 min
Histogram: 9 12 12 6 3 14 8 0 2 6
Neighs:    0 ave 0 max 0 min
Histogram: 72 0 0 0 0 0 0 0 0 0
FullNghs:  7307.5 ave 8464 max 6322 min
Histogram: 16 0 0 13 11 8 8 8 0 8

Total # of neighbors = 526140
Ave neighs/atom = 46.9768
Neighbor list builds = 1
Dangerous builds = 0
unfix           NVE
write_restart   restart.NVE.pressure.*

write_restart   restart.final.*
write_data	data.relaxed nocoeff
Total wall time: 0:34:14
